REMARK  4 active torsions:
REMARK  status: ('A' for Active; 'I' for Inactive)
REMARK    1  A    between atoms: C00Q_4  and  N008_28 
REMARK    2  A    between atoms: C00Q_5  and  N008_29 
REMARK    3  A    between atoms: C00R_6  and  N2_24 
REMARK    4  A    between atoms: C00R_7  and  N2_25 
ROOT
HETATM    1 Pd02 UNK     1       2.061  11.319   0.000  1.00  2.67     0.000 Pd
HETATM    2  C00 UNK     1       2.328  13.077   2.373  1.00  3.05     0.162 C 
HETATM    3  C00 UNK     1       1.794   9.562  -2.373  1.00  3.05     0.162 C 
HETATM    4  C00 UNK     1       3.461  12.232   4.416  1.00  3.12     0.285 C 
HETATM    5  C00 UNK     1       0.661  10.406  -4.416  1.00  3.12     0.285 C 
HETATM    6  C00 UNK     1       3.174  12.091   3.026  1.00  2.91     0.192 C 
HETATM    7  C00 UNK     1       0.948  10.547  -3.026  1.00  2.91     0.192 C 
HETATM    8  N00 UNK     1       1.961  12.955   1.159  1.00  3.53    -0.281 N 
HETATM    9  N00 UNK     1       2.161   9.684  -1.159  1.00  3.53    -0.281 N 
HETATM   10  N00 UNK     1       3.775  11.102   2.439  1.00  2.91    -0.140 NA
HETATM   11  N00 UNK     1       0.347  11.536  -2.439  1.00  2.91    -0.140 NA
HETATM   12  N00 UNK     1       1.995  14.202   3.106  1.00  3.87    -0.286 N 
HETATM   13  N00 UNK     1       2.127   8.436  -3.106  1.00  3.87    -0.286 N 
HETATM   14  N00 UNK     1       2.897  13.305   5.080  1.00  3.64    -0.268 N 
HETATM   15  N00 UNK     1       1.225   9.333  -5.080  1.00  3.64    -0.268 N 
HETATM   16  O00 UNK     1       1.800  15.283   5.094  1.00  5.50    -0.246 OA
HETATM   17  O00 UNK     1       2.322   7.355  -5.094  1.00  5.50    -0.246 OA
HETATM   18  O00 UNK     1       4.161  11.440   5.077  1.00  4.02    -0.265 OA
HETATM   19  O00 UNK     1      -0.039  11.199  -5.077  1.00  4.02    -0.265 OA
HETATM   20  N00 UNK     1       3.576  10.726   1.206  1.00  2.69    -0.150 N 
HETATM   21  N00 UNK     1       0.545  11.913  -1.206  1.00  2.69    -0.150 N 
HETATM   22  C01 UNK     1       2.218  14.340   4.457  1.00  3.63     0.332 C 
HETATM   23  C01 UNK     1       1.904   8.298  -4.457  1.00  3.63     0.332 C 
HETATM   24  C01 UNK     1       3.155  13.444   6.546  1.00  4.19     0.164 C 
HETATM   25  C01 UNK     1       0.967   9.194  -6.546  1.00  4.19     0.164 C 
HETATM   26  C01 UNK     1       1.304  15.323   2.469  1.00  6.22     0.163 C 
HETATM   27  C01 UNK     1       2.818   7.315  -2.469  1.00  6.22     0.163 C 
HETATM   28 BH00 UNK     1       1.631  13.658   0.792  1.00  4.26     0.188 HD
HETATM   29 BH00 UNK     1       2.491   8.980  -0.792  1.00  4.26     0.188 HD
ENDROOT
BRANCH  20  30
HETATM   30  C00 UNK     1       4.456   9.690   0.801  1.00  2.81     0.079 A 
HETATM   31  C00 UNK     1       5.148   9.793  -0.408  1.00  3.39     0.036 A 
HETATM   32  C01 UNK     1       5.981   8.779  -0.818  1.00  4.18     0.031 A 
HETATM   33  C00 UNK     1       6.132   7.643  -0.056  1.00  3.61     0.025 A 
HETATM   34  C01 UNK     1       5.485   7.531   1.135  1.00  4.33     0.031 A 
HETATM   35  C01 UNK     1       4.663   8.538   1.602  1.00  3.52     0.036 A 
BRANCH  33  36
HETATM   36  N2  UNK     1       7.142   6.356  -0.630  1.00  0.31    -0.399 N 
HETATM   37  H2a UNK     1       7.545   6.429  -1.385  1.00  0.38     0.156 HD
HETATM   38  H2b UNK     1       7.240   5.644  -0.158  1.00  0.38     0.156 HD
ENDBRANCH  33  36
ENDBRANCH  20  30
BRANCH  21  39
HETATM   39  C00 UNK     1      -0.334  12.948  -0.801  1.00  2.81     0.079 A 
HETATM   40  C00 UNK     1      -1.026  12.846   0.408  1.00  3.39     0.036 A 
HETATM   41  C01 UNK     1      -1.859  13.860   0.818  1.00  4.18     0.031 A 
HETATM   42  C00 UNK     1      -2.010  14.996   0.056  1.00  3.61     0.025 A 
HETATM   43  C01 UNK     1      -1.363  15.108  -1.135  1.00  4.33     0.031 A 
HETATM   44  C01 UNK     1      -0.541  14.101  -1.602  1.00  3.52     0.036 A 
BRANCH  42  45
HETATM   45  N2  UNK     1      -3.020  16.282   0.630  1.00  0.31    -0.399 N 
HETATM   46  H2a UNK     1      -3.423  16.209   1.385  1.00  0.38     0.156 HD
HETATM   47  H2b UNK     1      -3.118  16.994   0.158  1.00  0.38     0.156 HD
ENDBRANCH  42  45
ENDBRANCH  21  39
TORSDOF 4
