MODEL 1
REMARK VINA RESULT:    -8.280      0.000      0.000
REMARK INTER + INTRA:         -12.984
REMARK INTER:                 -12.152
REMARK INTRA:                  -0.832
REMARK UNBOUND:                -0.832
REMARK  8 active torsions:
REMARK  status: ('A' for Active; 'I' for Inactive)
REMARK    1  A    between atoms: PA_1  and  O5'_5 
REMARK    2  A    between atoms: PA_1  and  O3A_24 
REMARK    3  A    between atoms: PB_2  and  N3B_23 
REMARK    4  A    between atoms: PB_2  and  O3A_24 
REMARK    5  A    between atoms: PG_3  and  N3B_23 
REMARK    6  A    between atoms: C5'_4  and  O5'_5 
REMARK    7  A    between atoms: C5'_4  and  C4'_6 
REMARK    8  A    between atoms: C1'_12  and  N9_32 
ROOT
HETATM    1  C4' GNP A 200       5.236  43.575  21.247  1.00 11.60     0.181 C 
HETATM    2  O4' GNP A 200       6.594  43.112  21.530  1.00 10.96    -0.331 OA
HETATM    3  C3' GNP A 200       4.699  44.135  22.573  1.00 12.08     0.216 C 
HETATM    4  O3' GNP A 200       4.065  43.047  23.291  1.00 14.40    -0.218 OA
HETATM    5  C2' GNP A 200       6.006  44.562  23.311  1.00 12.17     0.234 C 
HETATM    6  O2' GNP A 200       5.955  44.487  24.763  1.00 13.60    -0.216 OA
HETATM    7  C1' GNP A 200       6.988  43.450  22.887  1.00 11.60     0.241 C 
ENDROOT
BRANCH   1   8
HETATM    8  C5' GNP A 200       5.212  44.542  20.135  1.00 10.62     0.187 C 
BRANCH   8   9
HETATM    9  O5' GNP A 200       5.452  43.902  18.860  1.00  9.72    -0.268 OA
BRANCH   9  10
HETATM   10  PA  GNP A 200       4.300  43.554  17.918  1.00 10.32     0.418 P 
HETATM   11  O1A GNP A 200       3.010  44.224  18.401  1.00  9.87    -0.624 OA
HETATM   12  O2A GNP A 200       4.275  42.069  17.619  1.00 11.09    -0.624 OA
BRANCH  10  13
HETATM   13  O3A GNP A 200       4.793  44.310  16.492  1.00  9.21    -0.185 OA
BRANCH  13  14
HETATM   14  PB  GNP A 200       4.862  43.705  15.064  1.00  8.42     0.401 P 
HETATM   15  O1B GNP A 200       3.493  43.191  14.863  1.00  8.14    -0.628 OA
HETATM   16  O2B GNP A 200       5.943  42.782  14.953  1.00  8.71    -0.628 OA
BRANCH  14  17
HETATM   17  N3B GNP A 200       5.086  45.109  14.016  1.00  9.58    -0.091 NA
BRANCH  17  18
HETATM   18  PG  GNP A 200       5.938  46.415  14.437  1.00  9.51     0.404 P 
HETATM   19  O1G GNP A 200       6.211  47.257  13.166  1.00 10.72    -0.621 OA
HETATM   20  O2G GNP A 200       7.113  46.034  15.119  1.00 10.01    -0.621 OA
HETATM   21  O3G GNP A 200       4.958  47.166  15.381  1.00 11.72    -0.621 OA
ENDBRANCH  17  18
ENDBRANCH  14  17
ENDBRANCH  13  14
ENDBRANCH  10  13
ENDBRANCH   9  10
ENDBRANCH   8   9
ENDBRANCH   1   8
BRANCH   7  22
HETATM   22  N9  GNP A 200       8.456  43.785  22.862  1.00  9.54    -0.269 N 
HETATM   23  C4  GNP A 200       9.333  43.486  23.787  1.00  9.54     0.187 A 
HETATM   24  N3  GNP A 200       9.200  42.816  24.913  1.00 10.76    -0.039 NA
HETATM   25  C5  GNP A 200      10.492  44.126  23.283  1.00  8.26     0.162 A 
HETATM   26  C2  GNP A 200      10.180  42.647  25.645  1.00  9.86     0.772 A 
HETATM   27  N1  GNP A 200      11.509  43.207  25.285  1.00 10.22    -0.029 NA
HETATM   28  N2  GNP A 200      10.303  42.026  26.774  1.00 11.49     0.062 N 
HETATM   29  C6  GNP A 200      11.588  43.902  24.155  1.00 10.19     0.251 A 
HETATM   30  O6  GNP A 200      12.797  44.442  23.843  1.00 11.17    -0.167 OA
HETATM   31  N7  GNP A 200      10.239  44.705  22.158  1.00  8.86    -0.219 NA
HETATM   32  C8  GNP A 200       8.949  44.565  21.792  1.00 11.92     0.182 A 
ENDBRANCH   7  22
TORSDOF 8
ENDMDL
MODEL 2
REMARK VINA RESULT:    -8.020      7.771     12.303
REMARK INTER + INTRA:         -12.602
REMARK INTER:                 -11.725
REMARK INTRA:                  -0.877
REMARK UNBOUND:                -0.832
REMARK  8 active torsions:
REMARK  status: ('A' for Active; 'I' for Inactive)
REMARK    1  A    between atoms: PA_1  and  O5'_5 
REMARK    2  A    between atoms: PA_1  and  O3A_24 
REMARK    3  A    between atoms: PB_2  and  N3B_23 
REMARK    4  A    between atoms: PB_2  and  O3A_24 
REMARK    5  A    between atoms: PG_3  and  N3B_23 
REMARK    6  A    between atoms: C5'_4  and  O5'_5 
REMARK    7  A    between atoms: C5'_4  and  C4'_6 
REMARK    8  A    between atoms: C1'_12  and  N9_32 
ROOT
HETATM    1  C4' GNP A 200       2.313  50.068  15.992  1.00 11.60     0.181 C 
HETATM    2  O4' GNP A 200       2.018  49.567  14.649  1.00 10.96    -0.331 OA
HETATM    3  C3' GNP A 200       2.162  51.595  15.912  1.00 12.08     0.216 C 
HETATM    4  O3' GNP A 200       3.448  52.150  15.536  1.00 14.40    -0.218 OA
HETATM    5  C2' GNP A 200       1.149  51.771  14.737  1.00 12.17     0.234 C 
HETATM    6  O2' GNP A 200       1.295  52.997  13.968  1.00 13.60    -0.216 OA
HETATM    7  C1' GNP A 200       1.577  50.642  13.777  1.00 11.60     0.241 C 
ENDROOT
BRANCH   1   8
HETATM    8  C5' GNP A 200       1.456  49.433  17.009  1.00 10.62     0.187 C 
BRANCH   8   9
HETATM    9  O5' GNP A 200       1.630  47.997  17.039  1.00  9.72    -0.268 OA
BRANCH   9  10
HETATM   10  PA  GNP A 200       2.913  47.365  17.574  1.00 10.32     0.418 P 
HETATM   11  O1A GNP A 200       3.144  47.800  19.025  1.00  9.87    -0.624 OA
HETATM   12  O2A GNP A 200       4.048  47.521  16.583  1.00 11.09    -0.624 OA
BRANCH  10  13
HETATM   13  O3A GNP A 200       2.508  45.726  17.566  1.00  9.21    -0.185 OA
BRANCH  13  14
HETATM   14  PB  GNP A 200       3.400  44.518  17.963  1.00  8.42     0.401 P 
HETATM   15  O1B GNP A 200       2.613  43.872  19.032  1.00  8.14    -0.628 OA
HETATM   16  O2B GNP A 200       4.724  44.943  18.274  1.00  8.71    -0.628 OA
BRANCH  14  17
HETATM   17  N3B GNP A 200       3.362  43.475  16.539  1.00  9.58    -0.091 NA
BRANCH  17  18
HETATM   18  PG  GNP A 200       4.330  43.666  15.260  1.00  9.51     0.404 P 
HETATM   19  O1G GNP A 200       5.631  42.861  15.500  1.00 10.72    -0.621 OA
HETATM   20  O2G GNP A 200       4.557  45.038  15.019  1.00 10.01    -0.621 OA
HETATM   21  O3G GNP A 200       3.502  43.024  14.112  1.00 11.72    -0.621 OA
ENDBRANCH  17  18
ENDBRANCH  14  17
ENDBRANCH  13  14
ENDBRANCH  10  13
ENDBRANCH   9  10
ENDBRANCH   8   9
ENDBRANCH   1   8
BRANCH   7  22
HETATM   22  N9  GNP A 200       0.531  50.074  12.854  1.00  9.54    -0.269 N 
HETATM   23  C4  GNP A 200       0.670  49.854  11.570  1.00  9.54     0.187 A 
HETATM   24  N3  GNP A 200       1.709  50.018  10.778  1.00 10.76    -0.039 NA
HETATM   25  C5  GNP A 200      -0.635  49.427  11.223  1.00  8.26     0.162 A 
HETATM   26  C2  GNP A 200       1.616  49.736   9.579  1.00  9.86     0.772 A 
HETATM   27  N1  GNP A 200       0.338  49.234   9.008  1.00 10.22    -0.029 NA
HETATM   28  N2  GNP A 200       2.482  49.799   8.621  1.00 11.49     0.062 N 
HETATM   29  C6  GNP A 200      -0.692  49.115   9.841  1.00 10.19     0.251 A 
HETATM   30  O6  GNP A 200      -1.869  48.686   9.311  1.00 11.17    -0.167 OA
HETATM   31  N7  GNP A 200      -1.400  49.408  12.262  1.00  8.86    -0.219 NA
HETATM   32  C8  GNP A 200      -0.758  49.821  13.374  1.00 11.92     0.182 A 
ENDBRANCH   7  22
TORSDOF 8
ENDMDL
MODEL 3
REMARK VINA RESULT:    -7.314      7.486     10.029
REMARK INTER + INTRA:         -11.566
REMARK INTER:                 -10.757
REMARK INTRA:                  -0.809
REMARK UNBOUND:                -0.832
REMARK  8 active torsions:
REMARK  status: ('A' for Active; 'I' for Inactive)
REMARK    1  A    between atoms: PA_1  and  O5'_5 
REMARK    2  A    between atoms: PA_1  and  O3A_24 
REMARK    3  A    between atoms: PB_2  and  N3B_23 
REMARK    4  A    between atoms: PB_2  and  O3A_24 
REMARK    5  A    between atoms: PG_3  and  N3B_23 
REMARK    6  A    between atoms: C5'_4  and  O5'_5 
REMARK    7  A    between atoms: C5'_4  and  C4'_6 
REMARK    8  A    between atoms: C1'_12  and  N9_32 
ROOT
HETATM    1  C4' GNP A 200      -0.112  41.105  19.670  1.00 11.60     0.181 C 
HETATM    2  O4' GNP A 200      -1.007  41.236  20.820  1.00 10.96    -0.331 OA
HETATM    3  C3' GNP A 200      -0.490  39.778  18.994  1.00 12.08     0.216 C 
HETATM    4  O3' GNP A 200       0.306  38.729  19.598  1.00 14.40    -0.218 OA
HETATM    5  C2' GNP A 200      -1.987  39.607  19.404  1.00 12.17     0.234 C 
HETATM    6  O2' GNP A 200      -2.444  38.232  19.531  1.00 13.60    -0.216 OA
HETATM    7  C1' GNP A 200      -1.987  40.164  20.842  1.00 11.60     0.241 C 
ENDROOT
BRANCH   1   8
HETATM    8  C5' GNP A 200      -0.197  42.277  18.779  1.00 10.62     0.187 C 
BRANCH   8   9
HETATM    9  O5' GNP A 200       0.968  42.394  17.931  1.00  9.72    -0.268 OA
BRANCH   9  10
HETATM   10  PA  GNP A 200       2.259  43.033  18.441  1.00 10.32     0.418 P 
HETATM   11  O1A GNP A 200       3.409  42.025  18.357  1.00  9.87    -0.624 OA
HETATM   12  O2A GNP A 200       2.025  43.754  19.753  1.00 11.09    -0.624 OA
BRANCH  10  13
HETATM   13  O3A GNP A 200       2.518  44.236  17.286  1.00  9.21    -0.185 OA
BRANCH  13  14
HETATM   14  PB  GNP A 200       3.534  45.409  17.338  1.00  8.42     0.401 P 
HETATM   15  O1B GNP A 200       4.447  44.999  18.424  1.00  8.14    -0.628 OA
HETATM   16  O2B GNP A 200       2.864  46.660  17.468  1.00  8.71    -0.628 OA
BRANCH  14  17
HETATM   17  N3B GNP A 200       4.405  45.285  15.806  1.00  9.58    -0.091 NA
BRANCH  17  18
HETATM   18  PG  GNP A 200       4.815  43.883  15.118  1.00  9.51     0.404 P 
HETATM   19  O1G GNP A 200       3.592  43.336  14.342  1.00 10.72    -0.621 OA
HETATM   20  O2G GNP A 200       5.307  42.986  16.090  1.00 10.01    -0.621 OA
HETATM   21  O3G GNP A 200       5.935  44.308  14.129  1.00 11.72    -0.621 OA
ENDBRANCH  17  18
ENDBRANCH  14  17
ENDBRANCH  13  14
ENDBRANCH  10  13
ENDBRANCH   9  10
ENDBRANCH   8   9
ENDBRANCH   1   8
BRANCH   7  22
HETATM   22  N9  GNP A 200      -3.276  40.742  21.367  1.00  9.54    -0.269 N 
HETATM   23  C4  GNP A 200      -3.578  40.937  22.627  1.00  9.54     0.187 A 
HETATM   24  N3  GNP A 200      -2.873  40.736  23.721  1.00 10.76    -0.039 NA
HETATM   25  C5  GNP A 200      -4.916  41.390  22.520  1.00  8.26     0.162 A 
HETATM   26  C2  GNP A 200      -3.364  41.000  24.823  1.00  9.86     0.772 A 
HETATM   27  N1  GNP A 200      -4.751  41.523  24.938  1.00 10.22    -0.029 NA
HETATM   28  N2  GNP A 200      -2.877  40.901  26.017  1.00 11.49     0.062 N 
HETATM   29  C6  GNP A 200      -5.434  41.680  23.808  1.00 10.19     0.251 A 
HETATM   30  O6  GNP A 200      -6.714  42.128  23.916  1.00 11.17    -0.167 OA
HETATM   31  N7  GNP A 200      -5.281  41.444  21.284  1.00  8.86    -0.219 NA
HETATM   32  C8  GNP A 200      -4.306  41.034  20.447  1.00 11.92     0.182 A 
ENDBRANCH   7  22
TORSDOF 8
ENDMDL
MODEL 4
REMARK VINA RESULT:    -7.057      6.716      9.574
REMARK INTER + INTRA:         -11.188
REMARK INTER:                 -10.328
REMARK INTRA:                  -0.860
REMARK UNBOUND:                -0.832
REMARK  8 active torsions:
REMARK  status: ('A' for Active; 'I' for Inactive)
REMARK    1  A    between atoms: PA_1  and  O5'_5 
REMARK    2  A    between atoms: PA_1  and  O3A_24 
REMARK    3  A    between atoms: PB_2  and  N3B_23 
REMARK    4  A    between atoms: PB_2  and  O3A_24 
REMARK    5  A    between atoms: PG_3  and  N3B_23 
REMARK    6  A    between atoms: C5'_4  and  O5'_5 
REMARK    7  A    between atoms: C5'_4  and  C4'_6 
REMARK    8  A    between atoms: C1'_12  and  N9_32 
ROOT
HETATM    1  C4' GNP A 200       0.206  49.076  18.844  1.00 11.60     0.181 C 
HETATM    2  O4' GNP A 200       1.364  48.228  18.562  1.00 10.96    -0.331 OA
HETATM    3  C3' GNP A 200       0.661  50.516  18.556  1.00 12.08     0.216 C 
HETATM    4  O3' GNP A 200       1.222  51.057  19.778  1.00 14.40    -0.218 OA
HETATM    5  C2' GNP A 200       1.795  50.306  17.504  1.00 12.17     0.234 C 
HETATM    6  O2' GNP A 200       2.854  51.303  17.522  1.00 13.60    -0.216 OA
HETATM    7  C1' GNP A 200       2.458  49.007  18.007  1.00 11.60     0.241 C 
ENDROOT
BRANCH   1   8
HETATM    8  C5' GNP A 200      -0.976  48.656  18.070  1.00 10.62     0.187 C 
BRANCH   8   9
HETATM    9  O5' GNP A 200      -1.948  47.979  18.900  1.00  9.72    -0.268 OA
BRANCH   9  10
HETATM   10  PA  GNP A 200      -3.367  47.709  18.400  1.00 10.32     0.418 P 
HETATM   11  O1A GNP A 200      -4.129  49.030  18.254  1.00  9.87    -0.624 OA
HETATM   12  O2A GNP A 200      -4.013  46.585  19.184  1.00 11.09    -0.624 OA
BRANCH  10  13
HETATM   13  O3A GNP A 200      -3.068  47.092  16.858  1.00  9.21    -0.185 OA
BRANCH  13  14
HETATM   14  PB  GNP A 200      -4.069  46.930  15.682  1.00  8.42     0.401 P 
HETATM   15  O1B GNP A 200      -3.811  48.135  14.868  1.00  8.14    -0.628 OA
HETATM   16  O2B GNP A 200      -5.394  46.724  16.165  1.00  8.71    -0.628 OA
BRANCH  14  17
HETATM   17  N3B GNP A 200      -3.465  45.525  14.798  1.00  9.58    -0.091 NA
BRANCH  17  18
HETATM   18  PG  GNP A 200      -4.266  44.813  13.590  1.00  9.51     0.404 P 
HETATM   19  O1G GNP A 200      -3.237  44.275  12.565  1.00 10.72    -0.621 OA
HETATM   20  O2G GNP A 200      -5.200  45.708  13.028  1.00 10.01    -0.621 OA
HETATM   21  O3G GNP A 200      -4.978  43.633  14.309  1.00 11.72    -0.621 OA
ENDBRANCH  17  18
ENDBRANCH  14  17
ENDBRANCH  13  14
ENDBRANCH  10  13
ENDBRANCH   9  10
ENDBRANCH   8   9
ENDBRANCH   1   8
BRANCH   7  22
HETATM   22  N9  GNP A 200       3.160  48.142  16.994  1.00  9.54    -0.269 N 
HETATM   23  C4  GNP A 200       3.726  46.984  17.226  1.00  9.54     0.187 A 
HETATM   24  N3  GNP A 200       3.804  46.272  18.331  1.00 10.76    -0.039 NA
HETATM   25  C5  GNP A 200       4.295  46.699  15.961  1.00  8.26     0.162 A 
HETATM   26  C2  GNP A 200       4.393  45.186  18.319  1.00  9.86     0.772 A 
HETATM   27  N1  GNP A 200       5.036  44.677  17.080  1.00 10.22    -0.029 NA
HETATM   28  N2  GNP A 200       4.591  44.315  19.256  1.00 11.49     0.062 N 
HETATM   29  C6  GNP A 200       4.957  45.445  15.998  1.00 10.19     0.251 A 
HETATM   30  O6  GNP A 200       5.574  44.994  14.872  1.00 11.17    -0.167 OA
HETATM   31  N7  GNP A 200       4.028  47.639  15.119  1.00  8.86    -0.219 NA
HETATM   32  C8  GNP A 200       3.310  48.634  15.678  1.00 11.92     0.182 A 
ENDBRANCH   7  22
TORSDOF 8
ENDMDL
MODEL 5
REMARK VINA RESULT:    -6.948      6.579      9.725
REMARK INTER + INTRA:         -11.029
REMARK INTER:                 -10.568
REMARK INTRA:                  -0.461
REMARK UNBOUND:                -0.832
REMARK  8 active torsions:
REMARK  status: ('A' for Active; 'I' for Inactive)
REMARK    1  A    between atoms: PA_1  and  O5'_5 
REMARK    2  A    between atoms: PA_1  and  O3A_24 
REMARK    3  A    between atoms: PB_2  and  N3B_23 
REMARK    4  A    between atoms: PB_2  and  O3A_24 
REMARK    5  A    between atoms: PG_3  and  N3B_23 
REMARK    6  A    between atoms: C5'_4  and  O5'_5 
REMARK    7  A    between atoms: C5'_4  and  C4'_6 
REMARK    8  A    between atoms: C1'_12  and  N9_32 
ROOT
HETATM    1  C4' GNP A 200       1.186  49.094  18.480  1.00 11.60     0.181 C 
HETATM    2  O4' GNP A 200       2.271  48.113  18.445  1.00 10.96    -0.331 OA
HETATM    3  C3' GNP A 200       1.566  50.176  17.458  1.00 12.08     0.216 C 
HETATM    4  O3' GNP A 200       2.353  51.180  18.146  1.00 14.40    -0.218 OA
HETATM    5  C2' GNP A 200       2.471  49.390  16.458  1.00 12.17     0.234 C 
HETATM    6  O2' GNP A 200       3.507  50.177  15.805  1.00 13.60    -0.216 OA
HETATM    7  C1' GNP A 200       3.229  48.433  17.401  1.00 11.60     0.241 C 
ENDROOT
BRANCH   1   8
HETATM    8  C5' GNP A 200      -0.124  48.464  18.228  1.00 10.62     0.187 C 
BRANCH   8   9
HETATM    9  O5' GNP A 200      -1.216  49.295  18.683  1.00  9.72    -0.268 OA
BRANCH   9  10
HETATM   10  PA  GNP A 200      -2.595  49.220  18.030  1.00 10.32     0.418 P 
HETATM   11  O1A GNP A 200      -2.451  49.204  16.505  1.00  9.87    -0.624 OA
HETATM   12  O2A GNP A 200      -3.546  50.220  18.656  1.00 11.09    -0.624 OA
BRANCH  10  13
HETATM   13  O3A GNP A 200      -3.121  47.697  18.533  1.00  9.21    -0.185 OA
BRANCH  13  14
HETATM   14  PB  GNP A 200      -3.976  46.671  17.740  1.00  8.42     0.401 P 
HETATM   15  O1B GNP A 200      -2.961  45.945  16.950  1.00  8.14    -0.628 OA
HETATM   16  O2B GNP A 200      -5.029  47.322  17.034  1.00  8.71    -0.628 OA
BRANCH  14  17
HETATM   17  N3B GNP A 200      -4.594  45.580  18.984  1.00  9.58    -0.091 NA
BRANCH  17  18
HETATM   18  PG  GNP A 200      -5.482  44.269  18.667  1.00  9.51     0.404 P 
HETATM   19  O1G GNP A 200      -4.706  43.018  19.148  1.00 10.72    -0.621 OA
HETATM   20  O2G GNP A 200      -5.819  44.225  17.297  1.00 10.01    -0.621 OA
HETATM   21  O3G GNP A 200      -6.742  44.494  19.548  1.00 11.72    -0.621 OA
ENDBRANCH  17  18
ENDBRANCH  14  17
ENDBRANCH  13  14
ENDBRANCH  10  13
ENDBRANCH   9  10
ENDBRANCH   8   9
ENDBRANCH   1   8
BRANCH   7  22
HETATM   22  N9  GNP A 200       3.722  47.131  16.827  1.00  9.54    -0.269 N 
HETATM   23  C4  GNP A 200       3.919  46.019  17.490  1.00  9.54     0.187 A 
HETATM   24  N3  GNP A 200       3.717  45.728  18.758  1.00 10.76    -0.039 NA
HETATM   25  C5  GNP A 200       4.468  45.191  16.480  1.00  8.26     0.162 A 
HETATM   26  C2  GNP A 200       3.973  44.593  19.174  1.00  9.86     0.772 A 
HETATM   27  N1  GNP A 200       4.527  43.553  18.269  1.00 10.22    -0.029 NA
HETATM   28  N2  GNP A 200       3.852  44.072  20.352  1.00 11.49     0.062 N 
HETATM   29  C6  GNP A 200       4.742  43.902  17.005  1.00 10.19     0.251 A 
HETATM   30  O6  GNP A 200       5.279  42.959  16.184  1.00 11.17    -0.167 OA
HETATM   31  N7  GNP A 200       4.535  45.825  15.358  1.00  8.86    -0.219 NA
HETATM   32  C8  GNP A 200       4.094  47.095  15.464  1.00 11.92     0.182 A 
ENDBRANCH   7  22
TORSDOF 8
ENDMDL
MODEL 6
REMARK VINA RESULT:    -6.907      7.030     10.113
REMARK INTER + INTRA:         -10.969
REMARK INTER:                  -9.649
REMARK INTRA:                  -1.320
REMARK UNBOUND:                -0.832
REMARK  8 active torsions:
REMARK  status: ('A' for Active; 'I' for Inactive)
REMARK    1  A    between atoms: PA_1  and  O5'_5 
REMARK    2  A    between atoms: PA_1  and  O3A_24 
REMARK    3  A    between atoms: PB_2  and  N3B_23 
REMARK    4  A    between atoms: PB_2  and  O3A_24 
REMARK    5  A    between atoms: PG_3  and  N3B_23 
REMARK    6  A    between atoms: C5'_4  and  O5'_5 
REMARK    7  A    between atoms: C5'_4  and  C4'_6 
REMARK    8  A    between atoms: C1'_12  and  N9_32 
ROOT
HETATM    1  C4' GNP A 200       0.565  51.072  15.953  1.00 11.60     0.181 C 
HETATM    2  O4' GNP A 200       1.068  49.751  15.576  1.00 10.96    -0.331 OA
HETATM    3  C3' GNP A 200       1.099  51.336  17.369  1.00 12.08     0.216 C 
HETATM    4  O3' GNP A 200       0.130  50.815  18.314  1.00 14.40    -0.218 OA
HETATM    5  C2' GNP A 200       2.393  50.464  17.408  1.00 12.17     0.234 C 
HETATM    6  O2' GNP A 200       2.756  49.946  18.717  1.00 13.60    -0.216 OA
HETATM    7  C1' GNP A 200       1.968  49.228  16.590  1.00 11.60     0.241 C 
ENDROOT
BRANCH   1   8
HETATM    8  C5' GNP A 200       0.947  52.100  14.967  1.00 10.62     0.187 C 
BRANCH   8   9
HETATM    9  O5' GNP A 200       1.273  51.518  13.683  1.00  9.72    -0.268 OA
BRANCH   9  10
HETATM   10  PA  GNP A 200       0.518  51.919  12.417  1.00 10.32     0.418 P 
HETATM   11  O1A GNP A 200       0.312  53.436  12.390  1.00  9.87    -0.624 OA
HETATM   12  O2A GNP A 200      -0.683  51.022  12.195  1.00 11.09    -0.624 OA
BRANCH  10  13
HETATM   13  O3A GNP A 200       1.634  51.510  11.218  1.00  9.21    -0.185 OA
BRANCH  13  14
HETATM   14  PB  GNP A 200       1.692  52.020   9.752  1.00  8.42     0.401 P 
HETATM   15  O1B GNP A 200       2.782  53.016   9.798  1.00  8.14    -0.628 OA
HETATM   16  O2B GNP A 200       0.409  52.457   9.313  1.00  8.71    -0.628 OA
BRANCH  14  17
HETATM   17  N3B GNP A 200       2.260  50.620   8.836  1.00  9.58    -0.091 NA
BRANCH  17  18
HETATM   18  PG  GNP A 200       1.305  49.402   8.376  1.00  9.51     0.404 P 
HETATM   19  O1G GNP A 200       0.322  49.082   9.530  1.00 10.72    -0.621 OA
HETATM   20  O2G GNP A 200       2.083  48.293   7.980  1.00 10.01    -0.621 OA
HETATM   21  O3G GNP A 200       0.540  50.012   7.169  1.00 11.72    -0.621 OA
ENDBRANCH  17  18
ENDBRANCH  14  17
ENDBRANCH  13  14
ENDBRANCH  10  13
ENDBRANCH   9  10
ENDBRANCH   8   9
ENDBRANCH   1   8
BRANCH   7  22
HETATM   22  N9  GNP A 200       3.047  48.454  15.879  1.00  9.54    -0.269 N 
HETATM   23  C4  GNP A 200       3.693  47.417  16.351  1.00  9.54     0.187 A 
HETATM   24  N3  GNP A 200       3.564  46.770  17.491  1.00 10.76    -0.039 NA
HETATM   25  C5  GNP A 200       4.629  47.183  15.315  1.00  8.26     0.162 A 
HETATM   26  C2  GNP A 200       4.288  45.799  17.729  1.00  9.86     0.772 A 
HETATM   27  N1  GNP A 200       5.322  45.358  16.757  1.00 10.22    -0.029 NA
HETATM   28  N2  GNP A 200       4.345  45.010  18.754  1.00 11.49     0.062 N 
HETATM   29  C6  GNP A 200       5.435  46.060  15.633  1.00 10.19     0.251 A 
HETATM   30  O6  GNP A 200       6.402  45.675  14.758  1.00 11.17    -0.167 OA
HETATM   31  N7  GNP A 200       4.470  48.032  14.356  1.00  8.86    -0.219 NA
HETATM   32  C8  GNP A 200       3.484  48.914  14.617  1.00 11.92     0.182 A 
ENDBRANCH   7  22
TORSDOF 8
ENDMDL
MODEL 7
REMARK VINA RESULT:    -6.877      7.100     10.046
REMARK INTER + INTRA:         -10.925
REMARK INTER:                 -10.124
REMARK INTRA:                  -0.801
REMARK UNBOUND:                -0.832
REMARK  8 active torsions:
REMARK  status: ('A' for Active; 'I' for Inactive)
REMARK    1  A    between atoms: PA_1  and  O5'_5 
REMARK    2  A    between atoms: PA_1  and  O3A_24 
REMARK    3  A    between atoms: PB_2  and  N3B_23 
REMARK    4  A    between atoms: PB_2  and  O3A_24 
REMARK    5  A    between atoms: PG_3  and  N3B_23 
REMARK    6  A    between atoms: C5'_4  and  O5'_5 
REMARK    7  A    between atoms: C5'_4  and  C4'_6 
REMARK    8  A    between atoms: C1'_12  and  N9_32 
ROOT
HETATM    1  C4' GNP A 200       0.036  49.174  18.885  1.00 11.60     0.181 C 
HETATM    2  O4' GNP A 200       1.148  48.259  18.629  1.00 10.96    -0.331 OA
HETATM    3  C3' GNP A 200       0.615  50.590  18.736  1.00 12.08     0.216 C 
HETATM    4  O3' GNP A 200       1.115  51.004  20.032  1.00 14.40    -0.218 OA
HETATM    5  C2' GNP A 200       1.810  50.363  17.758  1.00 12.17     0.234 C 
HETATM    6  O2' GNP A 200       2.934  51.272  17.927  1.00 13.60    -0.216 OA
HETATM    7  C1' GNP A 200       2.336  48.986  18.214  1.00 11.60     0.241 C 
ENDROOT
BRANCH   1   8
HETATM    8  C5' GNP A 200      -1.109  48.899  17.997  1.00 10.62     0.187 C 
BRANCH   8   9
HETATM    9  O5' GNP A 200      -1.984  47.888  18.547  1.00  9.72    -0.268 OA
BRANCH   9  10
HETATM   10  PA  GNP A 200      -2.875  47.034  17.646  1.00 10.32     0.418 P 
HETATM   11  O1A GNP A 200      -2.184  45.701  17.342  1.00  9.87    -0.624 OA
HETATM   12  O2A GNP A 200      -3.414  47.850  16.489  1.00 11.09    -0.624 OA
BRANCH  10  13
HETATM   13  O3A GNP A 200      -4.191  46.735  18.660  1.00  9.21    -0.185 OA
BRANCH  13  14
HETATM   14  PB  GNP A 200      -5.216  45.572  18.577  1.00  8.42     0.401 P 
HETATM   15  O1B GNP A 200      -6.291  46.022  19.485  1.00  8.14    -0.628 OA
HETATM   16  O2B GNP A 200      -4.592  44.321  18.853  1.00  8.71    -0.628 OA
BRANCH  14  17
HETATM   17  N3B GNP A 200      -5.820  45.654  16.919  1.00  9.58    -0.091 NA
BRANCH  17  18
HETATM   18  PG  GNP A 200      -6.653  44.467  16.208  1.00  9.51     0.404 P 
HETATM   19  O1G GNP A 200      -7.792  44.025  17.158  1.00 10.72    -0.621 OA
HETATM   20  O2G GNP A 200      -5.787  43.414  15.843  1.00 10.01    -0.621 OA
HETATM   21  O3G GNP A 200      -7.239  45.173  14.953  1.00 11.72    -0.621 OA
ENDBRANCH  17  18
ENDBRANCH  14  17
ENDBRANCH  13  14
ENDBRANCH  10  13
ENDBRANCH   9  10
ENDBRANCH   8   9
ENDBRANCH   1   8
BRANCH   7  22
HETATM   22  N9  GNP A 200       3.052  48.139  17.195  1.00  9.54    -0.269 N 
HETATM   23  C4  GNP A 200       3.638  46.989  17.421  1.00  9.54     0.187 A 
HETATM   24  N3  GNP A 200       3.730  46.273  18.522  1.00 10.76    -0.039 NA
HETATM   25  C5  GNP A 200       4.210  46.721  16.153  1.00  8.26     0.162 A 
HETATM   26  C2  GNP A 200       4.337  45.198  18.504  1.00  9.86     0.772 A 
HETATM   27  N1  GNP A 200       4.988  44.707  17.261  1.00 10.22    -0.029 NA
HETATM   28  N2  GNP A 200       4.551  44.326  19.436  1.00 11.49     0.062 N 
HETATM   29  C6  GNP A 200       4.894  45.479  16.183  1.00 10.19     0.251 A 
HETATM   30  O6  GNP A 200       5.517  45.044  15.054  1.00 11.17    -0.167 OA
HETATM   31  N7  GNP A 200       3.925  47.661  15.316  1.00  8.86    -0.219 NA
HETATM   32  C8  GNP A 200       3.191  48.641  15.882  1.00 11.92     0.182 A 
ENDBRANCH   7  22
TORSDOF 8
ENDMDL
MODEL 8
REMARK VINA RESULT:    -6.471      7.277     10.445
REMARK INTER + INTRA:         -10.329
REMARK INTER:                  -9.271
REMARK INTRA:                  -1.058
REMARK UNBOUND:                -0.832
REMARK  8 active torsions:
REMARK  status: ('A' for Active; 'I' for Inactive)
REMARK    1  A    between atoms: PA_1  and  O5'_5 
REMARK    2  A    between atoms: PA_1  and  O3A_24 
REMARK    3  A    between atoms: PB_2  and  N3B_23 
REMARK    4  A    between atoms: PB_2  and  O3A_24 
REMARK    5  A    between atoms: PG_3  and  N3B_23 
REMARK    6  A    between atoms: C5'_4  and  O5'_5 
REMARK    7  A    between atoms: C5'_4  and  C4'_6 
REMARK    8  A    between atoms: C1'_12  and  N9_32 
ROOT
HETATM    1  C4' GNP A 200       0.207  50.716  15.304  1.00 11.60     0.181 C 
HETATM    2  O4' GNP A 200       0.909  49.432  15.290  1.00 10.96    -0.331 OA
HETATM    3  C3' GNP A 200       0.858  51.537  16.428  1.00 12.08     0.216 C 
HETATM    4  O3' GNP A 200       0.144  51.253  17.657  1.00 14.40    -0.218 OA
HETATM    5  C2' GNP A 200       2.294  50.928  16.500  1.00 12.17     0.234 C 
HETATM    6  O2' GNP A 200       2.920  50.963  17.813  1.00 13.60    -0.216 OA
HETATM    7  C1' GNP A 200       2.019  49.435  16.227  1.00 11.60     0.241 C 
ENDROOT
BRANCH   1   8
HETATM    8  C5' GNP A 200       0.246  51.371  13.984  1.00 10.62     0.187 C 
BRANCH   8   9
HETATM    9  O5' GNP A 200       0.391  50.411  12.912  1.00  9.72    -0.268 OA
BRANCH   9  10
HETATM   10  PA  GNP A 200      -0.602  50.361  11.752  1.00 10.32     0.418 P 
HETATM   11  O1A GNP A 200      -0.781  51.761  11.157  1.00  9.87    -0.624 OA
HETATM   12  O2A GNP A 200      -1.840  49.574  12.133  1.00 11.09    -0.624 OA
BRANCH  10  13
HETATM   13  O3A GNP A 200       0.232  49.408  10.636  1.00  9.21    -0.185 OA
BRANCH  13  14
HETATM   14  PB  GNP A 200      -0.198  49.028   9.193  1.00  8.42     0.401 P 
HETATM   15  O1B GNP A 200       1.001  48.347   8.666  1.00  8.14    -0.628 OA
HETATM   16  O2B GNP A 200      -0.681  50.168   8.488  1.00  8.71    -0.628 OA
BRANCH  14  17
HETATM   17  N3B GNP A 200      -1.462  47.817   9.432  1.00  9.58    -0.091 NA
BRANCH  17  18
HETATM   18  PG  GNP A 200      -2.922  47.898   8.746  1.00  9.51     0.404 P 
HETATM   19  O1G GNP A 200      -2.744  48.198   7.238  1.00 10.72    -0.621 OA
HETATM   20  O2G GNP A 200      -3.725  48.847   9.414  1.00 10.01    -0.621 OA
HETATM   21  O3G GNP A 200      -3.469  46.457   8.948  1.00 11.72    -0.621 OA
ENDBRANCH  17  18
ENDBRANCH  14  17
ENDBRANCH  13  14
ENDBRANCH  10  13
ENDBRANCH   9  10
ENDBRANCH   8   9
ENDBRANCH   1   8
BRANCH   7  22
HETATM   22  N9  GNP A 200       3.129  48.621  15.614  1.00  9.54    -0.269 N 
HETATM   23  C4  GNP A 200       3.707  47.575  16.151  1.00  9.54     0.187 A 
HETATM   24  N3  GNP A 200       3.473  46.953  17.288  1.00 10.76    -0.039 NA
HETATM   25  C5  GNP A 200       4.714  47.298  15.195  1.00  8.26     0.162 A 
HETATM   26  C2  GNP A 200       4.149  45.967  17.597  1.00  9.86     0.772 A 
HETATM   27  N1  GNP A 200       5.243  45.482  16.714  1.00 10.22    -0.029 NA
HETATM   28  N2  GNP A 200       4.104  45.195  18.634  1.00 11.49     0.062 N 
HETATM   29  C6  GNP A 200       5.462  46.160  15.592  1.00 10.19     0.251 A 
HETATM   30  O6  GNP A 200       6.483  45.735  14.801  1.00 11.17    -0.167 OA
HETATM   31  N7  GNP A 200       4.653  48.135  14.214  1.00  8.86    -0.219 NA
HETATM   32  C8  GNP A 200       3.674  49.047  14.383  1.00 11.92     0.182 A 
ENDBRANCH   7  22
TORSDOF 8
ENDMDL
MODEL 9
REMARK VINA RESULT:    -6.425     13.950     16.005
REMARK INTER + INTRA:         -10.261
REMARK INTER:                  -9.545
REMARK INTRA:                  -0.716
REMARK UNBOUND:                -0.832
REMARK  8 active torsions:
REMARK  status: ('A' for Active; 'I' for Inactive)
REMARK    1  A    between atoms: PA_1  and  O5'_5 
REMARK    2  A    between atoms: PA_1  and  O3A_24 
REMARK    3  A    between atoms: PB_2  and  N3B_23 
REMARK    4  A    between atoms: PB_2  and  O3A_24 
REMARK    5  A    between atoms: PG_3  and  N3B_23 
REMARK    6  A    between atoms: C5'_4  and  O5'_5 
REMARK    7  A    between atoms: C5'_4  and  C4'_6 
REMARK    8  A    between atoms: C1'_12  and  N9_32 
ROOT
HETATM    1  C4' GNP A 200      -4.240  48.535   9.119  1.00 11.60     0.181 C 
HETATM    2  O4' GNP A 200      -4.933  47.587   9.991  1.00 10.96    -0.331 OA
HETATM    3  C3' GNP A 200      -3.695  49.634  10.045  1.00 12.08     0.216 C 
HETATM    4  O3' GNP A 200      -4.715  50.657  10.169  1.00 14.40    -0.218 OA
HETATM    5  C2' GNP A 200      -3.536  48.881  11.403  1.00 12.17     0.234 C 
HETATM    6  O2' GNP A 200      -3.702  49.701  12.593  1.00 13.60    -0.216 OA
HETATM    7  C1' GNP A 200      -4.758  47.941  11.389  1.00 11.60     0.241 C 
ENDROOT
BRANCH   1   8
HETATM    8  C5' GNP A 200      -3.206  47.870   8.306  1.00 10.62     0.187 C 
BRANCH   8   9
HETATM    9  O5' GNP A 200      -3.076  48.478   7.000  1.00  9.72    -0.268 OA
BRANCH   9  10
HETATM   10  PA  GNP A 200      -1.902  49.397   6.666  1.00 10.32     0.418 P 
HETATM   11  O1A GNP A 200      -2.119  50.773   7.302  1.00  9.87    -0.624 OA
HETATM   12  O2A GNP A 200      -1.562  49.327   5.191  1.00 11.09    -0.624 OA
BRANCH  10  13
HETATM   13  O3A GNP A 200      -0.635  48.628   7.474  1.00  9.21    -0.185 OA
BRANCH  13  14
HETATM   14  PB  GNP A 200       0.731  49.232   7.904  1.00  8.42     0.401 P 
HETATM   15  O1B GNP A 200       0.931  48.656   9.249  1.00  8.14    -0.628 OA
HETATM   16  O2B GNP A 200       0.722  50.651   7.780  1.00  8.71    -0.628 OA
BRANCH  14  17
HETATM   17  N3B GNP A 200       1.892  48.483   6.803  1.00  9.58    -0.091 NA
BRANCH  17  18
HETATM   18  PG  GNP A 200       2.046  48.892   5.248  1.00  9.51     0.404 P 
HETATM   19  O1G GNP A 200       1.666  50.384   5.090  1.00 10.72    -0.621 OA
HETATM   20  O2G GNP A 200       1.279  48.030   4.437  1.00 10.01    -0.621 OA
HETATM   21  O3G GNP A 200       3.567  48.693   4.998  1.00 11.72    -0.621 OA
ENDBRANCH  17  18
ENDBRANCH  14  17
ENDBRANCH  13  14
ENDBRANCH  10  13
ENDBRANCH   9  10
ENDBRANCH   8   9
ENDBRANCH   1   8
BRANCH   7  22
HETATM   22  N9  GNP A 200      -4.662  46.657  12.172  1.00  9.54    -0.269 N 
HETATM   23  C4  GNP A 200      -5.623  46.101  12.867  1.00  9.54     0.187 A 
HETATM   24  N3  GNP A 200      -6.878  46.460  13.037  1.00 10.76    -0.039 NA
HETATM   25  C5  GNP A 200      -4.941  45.005  13.448  1.00  8.26     0.162 A 
HETATM   26  C2  GNP A 200      -7.622  45.772  13.743  1.00  9.86     0.772 A 
HETATM   27  N1  GNP A 200      -7.116  44.551  14.424  1.00 10.22    -0.029 NA
HETATM   28  N2  GNP A 200      -8.872  45.908  14.048  1.00 11.49     0.062 N 
HETATM   29  C6  GNP A 200      -5.834  44.246  14.247  1.00 10.19     0.251 A 
HETATM   30  O6  GNP A 200      -5.364  43.147  14.896  1.00 11.17    -0.167 OA
HETATM   31  N7  GNP A 200      -3.708  44.981  13.067  1.00  8.86    -0.219 NA
HETATM   32  C8  GNP A 200      -3.408  46.010  12.249  1.00 11.92     0.182 A 
ENDBRANCH   7  22
TORSDOF 8
ENDMDL
