MODEL 1
REMARK VINA RESULT:    -6.443      0.000      0.000
REMARK INTER + INTRA:         -10.016
REMARK INTER:                  -9.456
REMARK INTRA:                  -0.560
REMARK UNBOUND:                -0.560
REMARK  8 active torsions:
REMARK  status: ('A' for Active; 'I' for Inactive)
REMARK    1  A    between atoms: PA_1  and  O5'_5 
REMARK    2  A    between atoms: PA_1  and  O3A_24 
REMARK    3  A    between atoms: PB_2  and  N3B_23 
REMARK    4  A    between atoms: PB_2  and  O3A_24 
REMARK    5  A    between atoms: PG_3  and  N3B_23 
REMARK    6  A    between atoms: C5'_4  and  O5'_5 
REMARK    7  A    between atoms: C5'_4  and  C4'_6 
REMARK    8  A    between atoms: C1'_12  and  N9_32 
ROOT
HETATM    1  C4' GNP A 200      21.140  33.821  13.567  1.00 11.60     0.181 C 
HETATM    2  O4' GNP A 200      20.549  33.155  12.407  1.00 10.96    -0.331 OA
HETATM    3  C3' GNP A 200      21.692  32.699  14.459  1.00 12.08     0.216 C 
HETATM    4  O3' GNP A 200      20.637  32.290  15.365  1.00 14.40    -0.218 OA
HETATM    5  C2' GNP A 200      21.974  31.559  13.430  1.00 12.17     0.234 C 
HETATM    6  O2' GNP A 200      21.847  30.206  13.949  1.00 13.60    -0.216 OA
HETATM    7  C1' GNP A 200      20.798  31.724  12.446  1.00 11.60     0.241 C 
ENDROOT
BRANCH   1   8
HETATM    8  C5' GNP A 200      22.149  34.819  13.165  1.00 10.62     0.187 C 
BRANCH   8   9
HETATM    9  O5' GNP A 200      21.743  36.163  13.512  1.00  9.72    -0.268 OA
BRANCH   9  10
HETATM   10  PA  GNP A 200      22.774  37.250  13.810  1.00 10.32     0.418 P 
HETATM   11  O1A GNP A 200      23.921  37.175  12.797  1.00  9.87    -0.624 OA
HETATM   12  O2A GNP A 200      23.115  37.283  15.286  1.00 11.09    -0.624 OA
BRANCH  10  13
HETATM   13  O3A GNP A 200      21.883  38.651  13.504  1.00  9.21    -0.185 OA
BRANCH  13  14
HETATM   14  PB  GNP A 200      22.153  40.089  14.025  1.00  8.42     0.401 P 
HETATM   15  O1B GNP A 200      23.613  40.228  13.851  1.00  8.14    -0.628 OA
HETATM   16  O2B GNP A 200      21.618  40.266  15.334  1.00  8.71    -0.628 OA
BRANCH  14  17
HETATM   17  N3B GNP A 200      21.353  41.128  12.842  1.00  9.58    -0.091 NA
BRANCH  17  18
HETATM   18  PG  GNP A 200      19.902  41.799  13.073  1.00  9.51     0.404 P 
HETATM   19  O1G GNP A 200      20.046  42.940  14.110  1.00 10.72    -0.621 OA
HETATM   20  O2G GNP A 200      18.963  40.816  13.450  1.00 10.01    -0.621 OA
HETATM   21  O3G GNP A 200      19.574  42.382  11.671  1.00 11.72    -0.621 OA
ENDBRANCH  17  18
ENDBRANCH  14  17
ENDBRANCH  13  14
ENDBRANCH  10  13
ENDBRANCH   9  10
ENDBRANCH   8   9
ENDBRANCH   1   8
BRANCH   7  22
HETATM   22  N9  GNP A 200      21.003  31.262  11.026  1.00  9.54    -0.269 N 
HETATM   23  C4  GNP A 200      21.439  31.994  10.031  1.00  9.54     0.187 A 
HETATM   24  N3  GNP A 200      21.833  33.250   9.997  1.00 10.76    -0.039 NA
HETATM   25  C5  GNP A 200      21.331  31.082   8.953  1.00  8.26     0.162 A 
HETATM   26  C2  GNP A 200      22.216  33.743   8.930  1.00  9.86     0.772 A 
HETATM   27  N1  GNP A 200      22.217  32.945   7.676  1.00 10.22    -0.029 NA
HETATM   28  N2  GNP A 200      22.653  34.927   8.649  1.00 11.49     0.062 N 
HETATM   29  C6  GNP A 200      21.782  31.692   7.755  1.00 10.19     0.251 A 
HETATM   30  O6  GNP A 200      21.753  30.973   6.600  1.00 11.17    -0.167 OA
HETATM   31  N7  GNP A 200      20.886  29.942   9.364  1.00  8.86    -0.219 NA
HETATM   32  C8  GNP A 200      20.624  29.945  10.687  1.00 11.92     0.182 A 
ENDBRANCH   7  22
TORSDOF 8
ENDMDL
MODEL 2
REMARK VINA RESULT:    -6.289      2.656      4.458
REMARK INTER + INTRA:          -9.790
REMARK INTER:                  -8.738
REMARK INTRA:                  -1.052
REMARK UNBOUND:                -0.560
REMARK  8 active torsions:
REMARK  status: ('A' for Active; 'I' for Inactive)
REMARK    1  A    between atoms: PA_1  and  O5'_5 
REMARK    2  A    between atoms: PA_1  and  O3A_24 
REMARK    3  A    between atoms: PB_2  and  N3B_23 
REMARK    4  A    between atoms: PB_2  and  O3A_24 
REMARK    5  A    between atoms: PG_3  and  N3B_23 
REMARK    6  A    between atoms: C5'_4  and  O5'_5 
REMARK    7  A    between atoms: C5'_4  and  C4'_6 
REMARK    8  A    between atoms: C1'_12  and  N9_32 
ROOT
HETATM    1  C4' GNP A 200      20.917  33.719  13.574  1.00 11.60     0.181 C 
HETATM    2  O4' GNP A 200      20.365  32.969  12.445  1.00 10.96    -0.331 OA
HETATM    3  C3' GNP A 200      21.671  32.690  14.432  1.00 12.08     0.216 C 
HETATM    4  O3' GNP A 200      20.734  32.140  15.392  1.00 14.40    -0.218 OA
HETATM    5  C2' GNP A 200      22.055  31.598  13.386  1.00 12.17     0.234 C 
HETATM    6  O2' GNP A 200      22.150  30.243  13.906  1.00 13.60    -0.216 OA
HETATM    7  C1' GNP A 200      20.816  31.588  12.467  1.00 11.60     0.241 C 
ENDROOT
BRANCH   1   8
HETATM    8  C5' GNP A 200      21.751  34.847  13.121  1.00 10.62     0.187 C 
BRANCH   8   9
HETATM    9  O5' GNP A 200      22.754  35.202  14.101  1.00  9.72    -0.268 OA
BRANCH   9  10
HETATM   10  PA  GNP A 200      22.783  36.590  14.740  1.00 10.32     0.418 P 
HETATM   11  O1A GNP A 200      22.099  37.604  13.817  1.00  9.87    -0.624 OA
HETATM   12  O2A GNP A 200      24.164  36.913  15.271  1.00 11.09    -0.624 OA
BRANCH  10  13
HETATM   13  O3A GNP A 200      21.803  36.357  16.095  1.00  9.21    -0.185 OA
BRANCH  13  14
HETATM   14  PB  GNP A 200      22.180  35.681  17.441  1.00  8.42     0.401 P 
HETATM   15  O1B GNP A 200      22.591  36.828  18.275  1.00  8.14    -0.628 OA
HETATM   16  O2B GNP A 200      23.123  34.632  17.240  1.00  8.71    -0.628 OA
BRANCH  14  17
HETATM   17  N3B GNP A 200      20.641  35.073  18.058  1.00  9.58    -0.091 NA
BRANCH  17  18
HETATM   18  PG  GNP A 200      20.503  34.156  19.380  1.00  9.51     0.404 P 
HETATM   19  O1G GNP A 200      19.007  34.074  19.771  1.00 10.72    -0.621 OA
HETATM   20  O2G GNP A 200      21.323  34.660  20.412  1.00 10.01    -0.621 OA
HETATM   21  O3G GNP A 200      21.009  32.773  18.885  1.00 11.72    -0.621 OA
ENDBRANCH  17  18
ENDBRANCH  14  17
ENDBRANCH  13  14
ENDBRANCH  10  13
ENDBRANCH   9  10
ENDBRANCH   8   9
ENDBRANCH   1   8
BRANCH   7  22
HETATM   22  N9  GNP A 200      21.009  31.154  11.037  1.00  9.54    -0.269 N 
HETATM   23  C4  GNP A 200      21.417  31.910  10.048  1.00  9.54     0.187 A 
HETATM   24  N3  GNP A 200      21.790  33.173  10.029  1.00 10.76    -0.039 NA
HETATM   25  C5  GNP A 200      21.309  31.014   8.957  1.00  8.26     0.162 A 
HETATM   26  C2  GNP A 200      22.147  33.690   8.966  1.00  9.86     0.772 A 
HETATM   27  N1  GNP A 200      22.144  32.913   7.698  1.00 10.22    -0.029 NA
HETATM   28  N2  GNP A 200      22.560  34.886   8.698  1.00 11.49     0.062 N 
HETATM   29  C6  GNP A 200      21.731  31.651   7.762  1.00 10.19     0.251 A 
HETATM   30  O6  GNP A 200      21.698  30.951   6.596  1.00 11.17    -0.167 OA
HETATM   31  N7  GNP A 200      20.889  29.860   9.354  1.00  8.86    -0.219 NA
HETATM   32  C8  GNP A 200      20.647  29.836  10.681  1.00 11.92     0.182 A 
ENDBRANCH   7  22
TORSDOF 8
ENDMDL
MODEL 3
REMARK VINA RESULT:    -6.282      4.509      8.594
REMARK INTER + INTRA:          -9.780
REMARK INTER:                  -8.518
REMARK INTRA:                  -1.262
REMARK UNBOUND:                -0.560
REMARK  8 active torsions:
REMARK  status: ('A' for Active; 'I' for Inactive)
REMARK    1  A    between atoms: PA_1  and  O5'_5 
REMARK    2  A    between atoms: PA_1  and  O3A_24 
REMARK    3  A    between atoms: PB_2  and  N3B_23 
REMARK    4  A    between atoms: PB_2  and  O3A_24 
REMARK    5  A    between atoms: PG_3  and  N3B_23 
REMARK    6  A    between atoms: C5'_4  and  O5'_5 
REMARK    7  A    between atoms: C5'_4  and  C4'_6 
REMARK    8  A    between atoms: C1'_12  and  N9_32 
ROOT
HETATM    1  C4' GNP A 200      21.507  34.396  12.912  1.00 11.60     0.181 C 
HETATM    2  O4' GNP A 200      21.004  33.598  14.031  1.00 10.96    -0.331 OA
HETATM    3  C3' GNP A 200      22.593  35.309  13.503  1.00 12.08     0.216 C 
HETATM    4  O3' GNP A 200      21.953  36.530  13.949  1.00 14.40    -0.218 OA
HETATM    5  C2' GNP A 200      23.084  34.490  14.739  1.00 12.17     0.234 C 
HETATM    6  O2' GNP A 200      23.569  35.282  15.858  1.00 13.60    -0.216 OA
HETATM    7  C1' GNP A 200      21.771  33.852  15.238  1.00 11.60     0.241 C 
ENDROOT
BRANCH   1   8
HETATM    8  C5' GNP A 200      21.978  33.544  11.805  1.00 10.62     0.187 C 
BRANCH   8   9
HETATM    9  O5' GNP A 200      21.569  32.167  11.976  1.00  9.72    -0.268 OA
BRANCH   9  10
HETATM   10  PA  GNP A 200      20.391  31.587  11.194  1.00 10.32     0.418 P 
HETATM   11  O1A GNP A 200      19.220  32.574  11.207  1.00  9.87    -0.624 OA
HETATM   12  O2A GNP A 200      20.130  30.150  11.596  1.00 11.09    -0.624 OA
BRANCH  10  13
HETATM   13  O3A GNP A 200      21.023  31.528   9.630  1.00  9.21    -0.185 OA
BRANCH  13  14
HETATM   14  PB  GNP A 200      21.984  30.467   9.027  1.00  8.42     0.401 P 
HETATM   15  O1B GNP A 200      21.054  29.433   8.531  1.00  8.14    -0.628 OA
HETATM   16  O2B GNP A 200      22.972  30.076   9.976  1.00  8.71    -0.628 OA
BRANCH  14  17
HETATM   17  N3B GNP A 200      22.698  31.284   7.633  1.00  9.58    -0.091 NA
BRANCH  17  18
HETATM   18  PG  GNP A 200      23.380  32.746   7.702  1.00  9.51     0.404 P 
HETATM   19  O1G GNP A 200      24.217  32.963   6.418  1.00 10.72    -0.621 OA
HETATM   20  O2G GNP A 200      24.133  32.879   8.889  1.00 10.01    -0.621 OA
HETATM   21  O3G GNP A 200      22.148  33.693   7.709  1.00 11.72    -0.621 OA
ENDBRANCH  17  18
ENDBRANCH  14  17
ENDBRANCH  13  14
ENDBRANCH  10  13
ENDBRANCH   9  10
ENDBRANCH   8   9
ENDBRANCH   1   8
BRANCH   7  22
HETATM   22  N9  GNP A 200      21.868  32.552  15.993  1.00  9.54    -0.269 N 
HETATM   23  C4  GNP A 200      21.716  32.395  17.285  1.00  9.54     0.187 A 
HETATM   24  N3  GNP A 200      21.415  33.266  18.226  1.00 10.76    -0.039 NA
HETATM   25  C5  GNP A 200      22.013  31.018  17.430  1.00  8.26     0.162 A 
HETATM   26  C2  GNP A 200      21.317  32.889  19.399  1.00  9.86     0.772 A 
HETATM   27  N1  GNP A 200      21.554  31.470  19.770  1.00 10.22    -0.029 NA
HETATM   28  N2  GNP A 200      21.027  33.539  20.479  1.00 11.49     0.062 N 
HETATM   29  C6  GNP A 200      21.885  30.635  18.789  1.00 10.19     0.251 A 
HETATM   30  O6  GNP A 200      22.134  29.343  19.134  1.00 11.17    -0.167 OA
HETATM   31  N7  GNP A 200      22.284  30.488  16.285  1.00  8.86    -0.219 NA
HETATM   32  C8  GNP A 200      22.236  31.388  15.283  1.00 11.92     0.182 A 
ENDBRANCH   7  22
TORSDOF 8
ENDMDL
MODEL 4
REMARK VINA RESULT:    -6.268      4.965      8.919
REMARK INTER + INTRA:          -9.759
REMARK INTER:                  -8.852
REMARK INTRA:                  -0.908
REMARK UNBOUND:                -0.560
REMARK  8 active torsions:
REMARK  status: ('A' for Active; 'I' for Inactive)
REMARK    1  A    between atoms: PA_1  and  O5'_5 
REMARK    2  A    between atoms: PA_1  and  O3A_24 
REMARK    3  A    between atoms: PB_2  and  N3B_23 
REMARK    4  A    between atoms: PB_2  and  O3A_24 
REMARK    5  A    between atoms: PG_3  and  N3B_23 
REMARK    6  A    between atoms: C5'_4  and  O5'_5 
REMARK    7  A    between atoms: C5'_4  and  C4'_6 
REMARK    8  A    between atoms: C1'_12  and  N9_32 
ROOT
HETATM    1  C4' GNP A 200      22.172  31.976  15.646  1.00 11.60     0.181 C 
HETATM    2  O4' GNP A 200      22.508  31.412  14.338  1.00 10.96    -0.331 OA
HETATM    3  C3' GNP A 200      21.476  33.316  15.358  1.00 12.08     0.216 C 
HETATM    4  O3' GNP A 200      22.497  34.343  15.295  1.00 14.40    -0.218 OA
HETATM    5  C2' GNP A 200      20.875  33.083  13.936  1.00 12.17     0.234 C 
HETATM    6  O2' GNP A 200      20.760  34.273  13.106  1.00 13.60    -0.216 OA
HETATM    7  C1' GNP A 200      21.970  32.230  13.265  1.00 11.60     0.241 C 
ENDROOT
BRANCH   1   8
HETATM    8  C5' GNP A 200      21.364  31.041  16.449  1.00 10.62     0.187 C 
BRANCH   8   9
HETATM    9  O5' GNP A 200      22.190  30.193  17.279  1.00  9.72    -0.268 OA
BRANCH   9  10
HETATM   10  PA  GNP A 200      22.523  30.576  18.720  1.00 10.32     0.418 P 
HETATM   11  O1A GNP A 200      21.463  31.539  19.263  1.00  9.87    -0.624 OA
HETATM   12  O2A GNP A 200      23.983  30.956  18.856  1.00 11.09    -0.624 OA
BRANCH  10  13
HETATM   13  O3A GNP A 200      22.351  29.093  19.509  1.00  9.21    -0.185 OA
BRANCH  13  14
HETATM   14  PB  GNP A 200      23.452  28.043  19.821  1.00  8.42     0.401 P 
HETATM   15  O1B GNP A 200      22.680  26.930  20.410  1.00  8.14    -0.628 OA
HETATM   16  O2B GNP A 200      24.497  28.616  20.601  1.00  8.71    -0.628 OA
BRANCH  14  17
HETATM   17  N3B GNP A 200      24.021  27.538  18.227  1.00  9.58    -0.091 NA
BRANCH  17  18
HETATM   18  PG  GNP A 200      24.603  26.066  17.907  1.00  9.51     0.404 P 
HETATM   19  O1G GNP A 200      25.380  25.561  19.147  1.00 10.72    -0.621 OA
HETATM   20  O2G GNP A 200      25.383  26.093  16.731  1.00 10.01    -0.621 OA
HETATM   21  O3G GNP A 200      23.309  25.230  17.703  1.00 11.72    -0.621 OA
ENDBRANCH  17  18
ENDBRANCH  14  17
ENDBRANCH  13  14
ENDBRANCH  10  13
ENDBRANCH   9  10
ENDBRANCH   8   9
ENDBRANCH   1   8
BRANCH   7  22
HETATM   22  N9  GNP A 200      21.551  31.300  12.156  1.00  9.54    -0.269 N 
HETATM   23  C4  GNP A 200      21.767  31.476  10.876  1.00  9.54     0.187 A 
HETATM   24  N3  GNP A 200      22.406  32.434  10.237  1.00 10.76    -0.039 NA
HETATM   25  C5  GNP A 200      21.078  30.367  10.327  1.00  8.26     0.162 A 
HETATM   26  C2  GNP A 200      22.493  32.395   9.005  1.00  9.86     0.772 A 
HETATM   27  N1  GNP A 200      21.869  31.293   8.228  1.00 10.22    -0.029 NA
HETATM   28  N2  GNP A 200      23.067  33.197   8.167  1.00 11.49     0.062 N 
HETATM   29  C6  GNP A 200      21.209  30.366   8.915  1.00 10.19     0.251 A 
HETATM   30  O6  GNP A 200      20.610  29.375   8.201  1.00 11.17    -0.167 OA
HETATM   31  N7  GNP A 200      20.553  29.649  11.262  1.00  8.86    -0.219 NA
HETATM   32  C8  GNP A 200      20.780  30.164  12.487  1.00 11.92     0.182 A 
ENDBRANCH   7  22
TORSDOF 8
ENDMDL
MODEL 5
REMARK VINA RESULT:    -6.195      1.653      2.139
REMARK INTER + INTRA:          -9.653
REMARK INTER:                  -8.950
REMARK INTRA:                  -0.702
REMARK UNBOUND:                -0.560
REMARK  8 active torsions:
REMARK  status: ('A' for Active; 'I' for Inactive)
REMARK    1  A    between atoms: PA_1  and  O5'_5 
REMARK    2  A    between atoms: PA_1  and  O3A_24 
REMARK    3  A    between atoms: PB_2  and  N3B_23 
REMARK    4  A    between atoms: PB_2  and  O3A_24 
REMARK    5  A    between atoms: PG_3  and  N3B_23 
REMARK    6  A    between atoms: C5'_4  and  O5'_5 
REMARK    7  A    between atoms: C5'_4  and  C4'_6 
REMARK    8  A    between atoms: C1'_12  and  N9_32 
ROOT
HETATM    1  C4' GNP A 200      21.709  34.137  14.672  1.00 11.60     0.181 C 
HETATM    2  O4' GNP A 200      20.873  33.204  13.916  1.00 10.96    -0.331 OA
HETATM    3  C3' GNP A 200      22.562  33.270  15.611  1.00 12.08     0.216 C 
HETATM    4  O3' GNP A 200      21.824  33.095  16.847  1.00 14.40    -0.218 OA
HETATM    5  C2' GNP A 200      22.632  31.912  14.844  1.00 12.17     0.234 C 
HETATM    6  O2' GNP A 200      22.747  30.728  15.682  1.00 13.60    -0.216 OA
HETATM    7  C1' GNP A 200      21.224  31.827  14.221  1.00 11.60     0.241 C 
ENDROOT
BRANCH   1   8
HETATM    8  C5' GNP A 200      22.498  35.006  13.779  1.00 10.62     0.187 C 
BRANCH   8   9
HETATM    9  O5' GNP A 200      21.940  36.338  13.696  1.00  9.72    -0.268 OA
BRANCH   9  10
HETATM   10  PA  GNP A 200      22.750  37.563  14.118  1.00 10.32     0.418 P 
HETATM   11  O1A GNP A 200      24.123  37.541  13.441  1.00  9.87    -0.624 OA
HETATM   12  O2A GNP A 200      22.686  37.763  15.618  1.00 11.09    -0.624 OA
BRANCH  10  13
HETATM   13  O3A GNP A 200      21.841  38.815  13.441  1.00  9.21    -0.185 OA
BRANCH  13  14
HETATM   14  PB  GNP A 200      21.844  40.318  13.832  1.00  8.42     0.401 P 
HETATM   15  O1B GNP A 200      21.328  40.971  12.612  1.00  8.14    -0.628 OA
HETATM   16  O2B GNP A 200      23.125  40.717  14.311  1.00  8.71    -0.628 OA
BRANCH  14  17
HETATM   17  N3B GNP A 200      20.606  40.434  15.087  1.00  9.58    -0.091 NA
BRANCH  17  18
HETATM   18  PG  GNP A 200      20.576  41.591  16.213  1.00  9.51     0.404 P 
HETATM   19  O1G GNP A 200      20.831  42.955  15.527  1.00 10.72    -0.621 OA
HETATM   20  O2G GNP A 200      21.501  41.299  17.238  1.00 10.01    -0.621 OA
HETATM   21  O3G GNP A 200      19.115  41.514  16.736  1.00 11.72    -0.621 OA
ENDBRANCH  17  18
ENDBRANCH  14  17
ENDBRANCH  13  14
ENDBRANCH  10  13
ENDBRANCH   9  10
ENDBRANCH   8   9
ENDBRANCH   1   8
BRANCH   7  22
HETATM   22  N9  GNP A 200      21.067  31.030  12.952  1.00  9.54    -0.269 N 
HETATM   23  C4  GNP A 200      21.263  31.470  11.734  1.00  9.54     0.187 A 
HETATM   24  N3  GNP A 200      21.665  32.647  11.299  1.00 10.76    -0.039 NA
HETATM   25  C5  GNP A 200      20.876  30.342  10.970  1.00  8.26     0.162 A 
HETATM   26  C2  GNP A 200      21.787  32.843  10.086  1.00  9.86     0.772 A 
HETATM   27  N1  GNP A 200      21.465  31.776   9.102  1.00 10.22    -0.029 NA
HETATM   28  N2  GNP A 200      22.168  33.889   9.427  1.00 11.49     0.062 N 
HETATM   29  C6  GNP A 200      21.034  30.615   9.587  1.00 10.19     0.251 A 
HETATM   30  O6  GNP A 200      20.710  29.650   8.685  1.00 11.17    -0.167 OA
HETATM   31  N7  GNP A 200      20.519  29.371  11.740  1.00  8.86    -0.219 NA
HETATM   32  C8  GNP A 200      20.588  29.705  13.045  1.00 11.92     0.182 A 
ENDBRANCH   7  22
TORSDOF 8
ENDMDL
MODEL 6
REMARK VINA RESULT:    -6.181      7.881     13.791
REMARK INTER + INTRA:          -9.631
REMARK INTER:                  -8.888
REMARK INTRA:                  -0.744
REMARK UNBOUND:                -0.560
REMARK  8 active torsions:
REMARK  status: ('A' for Active; 'I' for Inactive)
REMARK    1  A    between atoms: PA_1  and  O5'_5 
REMARK    2  A    between atoms: PA_1  and  O3A_24 
REMARK    3  A    between atoms: PB_2  and  N3B_23 
REMARK    4  A    between atoms: PB_2  and  O3A_24 
REMARK    5  A    between atoms: PG_3  and  N3B_23 
REMARK    6  A    between atoms: C5'_4  and  O5'_5 
REMARK    7  A    between atoms: C5'_4  and  C4'_6 
REMARK    8  A    between atoms: C1'_12  and  N9_32 
ROOT
HETATM    1  C4' GNP A 200      21.870  28.168   4.868  1.00 11.60     0.181 C 
HETATM    2  O4' GNP A 200      21.298  29.290   5.612  1.00 10.96    -0.331 OA
HETATM    3  C3' GNP A 200      23.393  28.284   5.038  1.00 12.08     0.216 C 
HETATM    4  O3' GNP A 200      23.898  29.117   3.965  1.00 14.40    -0.218 OA
HETATM    5  C2' GNP A 200      23.521  29.041   6.398  1.00 12.17     0.234 C 
HETATM    6  O2' GNP A 200      24.697  29.887   6.531  1.00 13.60    -0.216 OA
HETATM    7  C1' GNP A 200      22.330  30.018   6.330  1.00 11.60     0.241 C 
ENDROOT
BRANCH   1   8
HETATM    8  C5' GNP A 200      21.314  26.878   5.315  1.00 10.62     0.187 C 
BRANCH   8   9
HETATM    9  O5' GNP A 200      20.667  26.168   4.235  1.00  9.72    -0.268 OA
BRANCH   9  10
HETATM   10  PA  GNP A 200      19.792  24.944   4.502  1.00 10.32     0.418 P 
HETATM   11  O1A GNP A 200      18.889  25.202   5.712  1.00  9.87    -0.624 OA
HETATM   12  O2A GNP A 200      20.615  23.673   4.472  1.00 11.09    -0.624 OA
BRANCH  10  13
HETATM   13  O3A GNP A 200      18.829  24.910   3.115  1.00  9.21    -0.185 OA
BRANCH  13  14
HETATM   14  PB  GNP A 200      18.308  23.668   2.344  1.00  8.42     0.401 P 
HETATM   15  O1B GNP A 200      19.507  23.216   1.610  1.00  8.14    -0.628 OA
HETATM   16  O2B GNP A 200      17.144  23.989   1.586  1.00  8.71    -0.628 OA
BRANCH  14  17
HETATM   17  N3B GNP A 200      17.961  22.492   3.615  1.00  9.58    -0.091 NA
BRANCH  17  18
HETATM   18  PG  GNP A 200      18.080  20.893   3.416  1.00  9.51     0.404 P 
HETATM   19  O1G GNP A 200      17.729  20.551   1.947  1.00 10.72    -0.621 OA
HETATM   20  O2G GNP A 200      17.271  20.221   4.356  1.00 10.01    -0.621 OA
HETATM   21  O3G GNP A 200      19.589  20.633   3.684  1.00 11.72    -0.621 OA
ENDBRANCH  17  18
ENDBRANCH  14  17
ENDBRANCH  13  14
ENDBRANCH  10  13
ENDBRANCH   9  10
ENDBRANCH   8   9
ENDBRANCH   1   8
BRANCH   7  22
HETATM   22  N9  GNP A 200      21.731  30.482   7.633  1.00  9.54    -0.269 N 
HETATM   23  C4  GNP A 200      21.805  31.692   8.130  1.00  9.54     0.187 A 
HETATM   24  N3  GNP A 200      22.353  32.787   7.646  1.00 10.76    -0.039 NA
HETATM   25  C5  GNP A 200      21.168  31.513   9.382  1.00  8.26     0.162 A 
HETATM   26  C2  GNP A 200      22.298  33.837   8.295  1.00  9.86     0.772 A 
HETATM   27  N1  GNP A 200      21.641  33.880   9.627  1.00 10.22    -0.029 NA
HETATM   28  N2  GNP A 200      22.744  35.023   8.033  1.00 11.49     0.062 N 
HETATM   29  C6  GNP A 200      21.129  32.743  10.087  1.00 10.19     0.251 A 
HETATM   30  O6  GNP A 200      20.556  32.775  11.320  1.00 11.17    -0.167 OA
HETATM   31  N7  GNP A 200      20.772  30.292   9.521  1.00  8.86    -0.219 NA
HETATM   32  C8  GNP A 200      21.094  29.528   8.457  1.00 11.92     0.182 A 
ENDBRANCH   7  22
TORSDOF 8
ENDMDL
MODEL 7
REMARK VINA RESULT:    -6.173      5.801      7.389
REMARK INTER + INTRA:          -9.620
REMARK INTER:                  -8.710
REMARK INTRA:                  -0.910
REMARK UNBOUND:                -0.560
REMARK  8 active torsions:
REMARK  status: ('A' for Active; 'I' for Inactive)
REMARK    1  A    between atoms: PA_1  and  O5'_5 
REMARK    2  A    between atoms: PA_1  and  O3A_24 
REMARK    3  A    between atoms: PB_2  and  N3B_23 
REMARK    4  A    between atoms: PB_2  and  O3A_24 
REMARK    5  A    between atoms: PG_3  and  N3B_23 
REMARK    6  A    between atoms: C5'_4  and  O5'_5 
REMARK    7  A    between atoms: C5'_4  and  C4'_6 
REMARK    8  A    between atoms: C1'_12  and  N9_32 
ROOT
HETATM    1  C4' GNP A 200      20.474  33.327  17.077  1.00 11.60     0.181 C 
HETATM    2  O4' GNP A 200      20.251  33.242  15.633  1.00 10.96    -0.331 OA
HETATM    3  C3' GNP A 200      21.715  32.468  17.361  1.00 12.08     0.216 C 
HETATM    4  O3' GNP A 200      21.269  31.113  17.617  1.00 14.40    -0.218 OA
HETATM    5  C2' GNP A 200      22.480  32.522  16.001  1.00 12.17     0.234 C 
HETATM    6  O2' GNP A 200      23.278  31.347  15.688  1.00 13.60    -0.216 OA
HETATM    7  C1' GNP A 200      21.321  32.503  14.984  1.00 11.60     0.241 C 
ENDROOT
BRANCH   1   8
HETATM    8  C5' GNP A 200      20.598  34.726  17.525  1.00 10.62     0.187 C 
BRANCH   8   9
HETATM    9  O5' GNP A 200      19.547  35.089  18.450  1.00  9.72    -0.268 OA
BRANCH   9  10
HETATM   10  PA  GNP A 200      19.745  34.972  19.961  1.00 10.32     0.418 P 
HETATM   11  O1A GNP A 200      19.492  36.328  20.627  1.00  9.87    -0.624 OA
HETATM   12  O2A GNP A 200      21.030  34.237  20.283  1.00 11.09    -0.624 OA
BRANCH  10  13
HETATM   13  O3A GNP A 200      18.490  33.926  20.384  1.00  9.21    -0.185 OA
BRANCH  13  14
HETATM   14  PB  GNP A 200      17.848  33.720  21.783  1.00  8.42     0.401 P 
HETATM   15  O1B GNP A 200      18.991  33.917  22.697  1.00  8.14    -0.628 OA
HETATM   16  O2B GNP A 200      17.150  32.479  21.847  1.00  8.71    -0.628 OA
BRANCH  14  17
HETATM   17  N3B GNP A 200      16.756  35.098  21.958  1.00  9.58    -0.091 NA
BRANCH  17  18
HETATM   18  PG  GNP A 200      15.637  35.214  23.116  1.00  9.51     0.404 P 
HETATM   19  O1G GNP A 200      16.269  34.774  24.460  1.00 10.72    -0.621 OA
HETATM   20  O2G GNP A 200      14.491  34.469  22.766  1.00 10.01    -0.621 OA
HETATM   21  O3G GNP A 200      15.332  36.738  23.138  1.00 11.72    -0.621 OA
ENDBRANCH  17  18
ENDBRANCH  14  17
ENDBRANCH  13  14
ENDBRANCH  10  13
ENDBRANCH   9  10
ENDBRANCH   8   9
ENDBRANCH   1   8
BRANCH   7  22
HETATM   22  N9  GNP A 200      21.559  33.140  13.640  1.00  9.54    -0.269 N 
HETATM   23  C4  GNP A 200      21.406  32.564  12.474  1.00  9.54     0.187 A 
HETATM   24  N3  GNP A 200      20.990  31.355  12.161  1.00 10.76    -0.039 NA
HETATM   25  C5  GNP A 200      21.861  33.585  11.603  1.00  8.26     0.162 A 
HETATM   26  C2  GNP A 200      20.918  31.020  10.974  1.00  9.86     0.772 A 
HETATM   27  N1  GNP A 200      21.316  31.955   9.889  1.00 10.22    -0.029 NA
HETATM   28  N2  GNP A 200      20.537  29.912  10.424  1.00 11.49     0.062 N 
HETATM   29  C6  GNP A 200      21.759  33.154  10.255  1.00 10.19     0.251 A 
HETATM   30  O6  GNP A 200      22.152  33.998   9.264  1.00 11.17    -0.167 OA
HETATM   31  N7  GNP A 200      22.211  34.631  12.272  1.00  8.86    -0.219 NA
HETATM   32  C8  GNP A 200      22.072  34.456  13.602  1.00 11.92     0.182 A 
ENDBRANCH   7  22
TORSDOF 8
ENDMDL
MODEL 8
REMARK VINA RESULT:    -6.075      3.839      5.401
REMARK INTER + INTRA:          -9.475
REMARK INTER:                  -8.664
REMARK INTRA:                  -0.811
REMARK UNBOUND:                -0.560
REMARK  8 active torsions:
REMARK  status: ('A' for Active; 'I' for Inactive)
REMARK    1  A    between atoms: PA_1  and  O5'_5 
REMARK    2  A    between atoms: PA_1  and  O3A_24 
REMARK    3  A    between atoms: PB_2  and  N3B_23 
REMARK    4  A    between atoms: PB_2  and  O3A_24 
REMARK    5  A    between atoms: PG_3  and  N3B_23 
REMARK    6  A    between atoms: C5'_4  and  O5'_5 
REMARK    7  A    between atoms: C5'_4  and  C4'_6 
REMARK    8  A    between atoms: C1'_12  and  N9_32 
ROOT
HETATM    1  C4' GNP A 200      21.701  32.584  14.725  1.00 11.60     0.181 C 
HETATM    2  O4' GNP A 200      20.969  32.074  13.566  1.00 10.96    -0.331 OA
HETATM    3  C3' GNP A 200      22.766  31.525  15.048  1.00 12.08     0.216 C 
HETATM    4  O3' GNP A 200      22.180  30.573  15.972  1.00 14.40    -0.218 OA
HETATM    5  C2' GNP A 200      22.993  30.842  13.663  1.00 12.17     0.234 C 
HETATM    6  O2' GNP A 200      23.377  29.440  13.714  1.00 13.60    -0.216 OA
HETATM    7  C1' GNP A 200      21.568  30.847  13.070  1.00 11.60     0.241 C 
ENDROOT
BRANCH   1   8
HETATM    8  C5' GNP A 200      22.252  33.928  14.470  1.00 10.62     0.187 C 
BRANCH   8   9
HETATM    9  O5' GNP A 200      21.595  34.939  15.269  1.00  9.72    -0.268 OA
BRANCH   9  10
HETATM   10  PA  GNP A 200      22.044  35.234  16.699  1.00 10.32     0.418 P 
HETATM   11  O1A GNP A 200      22.019  36.745  16.953  1.00  9.87    -0.624 OA
HETATM   12  O2A GNP A 200      23.303  34.465  17.042  1.00 11.09    -0.624 OA
BRANCH  10  13
HETATM   13  O3A GNP A 200      20.802  34.522  17.595  1.00  9.21    -0.185 OA
BRANCH  13  14
HETATM   14  PB  GNP A 200      20.762  34.248  19.123  1.00  8.42     0.401 P 
HETATM   15  O1B GNP A 200      21.782  35.178  19.646  1.00  8.14    -0.628 OA
HETATM   16  O2B GNP A 200      20.924  32.858  19.396  1.00  8.71    -0.628 OA
BRANCH  14  17
HETATM   17  N3B GNP A 200      19.171  34.835  19.618  1.00  9.58    -0.091 NA
BRANCH  17  18
HETATM   18  PG  GNP A 200      18.537  34.581  21.082  1.00  9.51     0.404 P 
HETATM   19  O1G GNP A 200      17.852  33.193  21.090  1.00 10.72    -0.621 OA
HETATM   20  O2G GNP A 200      17.667  35.637  21.428  1.00 10.01    -0.621 OA
HETATM   21  O3G GNP A 200      19.795  34.567  21.995  1.00 11.72    -0.621 OA
ENDBRANCH  17  18
ENDBRANCH  14  17
ENDBRANCH  13  14
ENDBRANCH  10  13
ENDBRANCH   9  10
ENDBRANCH   8   9
ENDBRANCH   1   8
BRANCH   7  22
HETATM   22  N9  GNP A 200      21.435  30.853  11.570  1.00  9.54    -0.269 N 
HETATM   23  C4  GNP A 200      21.924  31.755  10.754  1.00  9.54     0.187 A 
HETATM   24  N3  GNP A 200      22.658  32.822  10.993  1.00 10.76    -0.039 NA
HETATM   25  C5  GNP A 200      21.409  31.308   9.513  1.00  8.26     0.162 A 
HETATM   26  C2  GNP A 200      23.017  33.540  10.055  1.00  9.86     0.772 A 
HETATM   27  N1  GNP A 200      22.615  33.232   8.657  1.00 10.22    -0.029 NA
HETATM   28  N2  GNP A 200      23.736  34.615  10.034  1.00 11.49     0.062 N 
HETATM   29  C6  GNP A 200      21.849  32.162   8.469  1.00 10.19     0.251 A 
HETATM   30  O6  GNP A 200      21.455  31.899   7.194  1.00 11.17    -0.167 OA
HETATM   31  N7  GNP A 200      20.713  30.233   9.669  1.00  8.86    -0.219 NA
HETATM   32  C8  GNP A 200      20.647  29.852  10.961  1.00 11.92     0.182 A 
ENDBRANCH   7  22
TORSDOF 8
ENDMDL
MODEL 9
REMARK VINA RESULT:    -6.005      4.283      6.299
REMARK INTER + INTRA:          -9.373
REMARK INTER:                  -8.218
REMARK INTRA:                  -1.155
REMARK UNBOUND:                -0.560
REMARK  8 active torsions:
REMARK  status: ('A' for Active; 'I' for Inactive)
REMARK    1  A    between atoms: PA_1  and  O5'_5 
REMARK    2  A    between atoms: PA_1  and  O3A_24 
REMARK    3  A    between atoms: PB_2  and  N3B_23 
REMARK    4  A    between atoms: PB_2  and  O3A_24 
REMARK    5  A    between atoms: PG_3  and  N3B_23 
REMARK    6  A    between atoms: C5'_4  and  O5'_5 
REMARK    7  A    between atoms: C5'_4  and  C4'_6 
REMARK    8  A    between atoms: C1'_12  and  N9_32 
ROOT
HETATM    1  C4' GNP A 200      24.016  31.202   8.438  1.00 11.60     0.181 C 
HETATM    2  O4' GNP A 200      23.664  31.249   9.857  1.00 10.96    -0.331 OA
HETATM    3  C3' GNP A 200      22.872  30.444   7.747  1.00 12.08     0.216 C 
HETATM    4  O3' GNP A 200      23.199  29.032   7.765  1.00 14.40    -0.218 OA
HETATM    5  C2' GNP A 200      21.665  30.718   8.698  1.00 12.17     0.234 C 
HETATM    6  O2' GNP A 200      20.660  29.667   8.747  1.00 13.60    -0.216 OA
HETATM    7  C1' GNP A 200      22.342  30.692  10.084  1.00 11.60     0.241 C 
ENDROOT
BRANCH   1   8
HETATM    8  C5' GNP A 200      24.257  32.551   7.893  1.00 10.62     0.187 C 
BRANCH   8   9
HETATM    9  O5' GNP A 200      23.490  33.558   8.593  1.00  9.72    -0.268 OA
BRANCH   9  10
HETATM   10  PA  GNP A 200      24.156  34.524   9.572  1.00 10.32     0.418 P 
HETATM   11  O1A GNP A 200      25.673  34.514   9.364  1.00  9.87    -0.624 OA
HETATM   12  O2A GNP A 200      23.616  34.331  10.974  1.00 11.09    -0.624 OA
BRANCH  10  13
HETATM   13  O3A GNP A 200      23.554  36.008   9.039  1.00  9.21    -0.185 OA
BRANCH  13  14
HETATM   14  PB  GNP A 200      23.450  36.529   7.579  1.00  8.42     0.401 P 
HETATM   15  O1B GNP A 200      22.144  35.999   7.139  1.00  8.14    -0.628 OA
HETATM   16  O2B GNP A 200      24.604  36.169   6.825  1.00  8.71    -0.628 OA
BRANCH  14  17
HETATM   17  N3B GNP A 200      23.304  38.280   7.762  1.00  9.58    -0.091 NA
BRANCH  17  18
HETATM   18  PG  GNP A 200      22.632  39.245   6.654  1.00  9.51     0.404 P 
HETATM   19  O1G GNP A 200      22.795  40.714   7.115  1.00 10.72    -0.621 OA
HETATM   20  O2G GNP A 200      21.289  38.874   6.433  1.00 10.01    -0.621 OA
HETATM   21  O3G GNP A 200      23.505  38.973   5.398  1.00 11.72    -0.621 OA
ENDBRANCH  17  18
ENDBRANCH  14  17
ENDBRANCH  13  14
ENDBRANCH  10  13
ENDBRANCH   9  10
ENDBRANCH   8   9
ENDBRANCH   1   8
BRANCH   7  22
HETATM   22  N9  GNP A 200      21.700  31.489  11.190  1.00  9.54    -0.269 N 
HETATM   23  C4  GNP A 200      22.046  31.475  12.453  1.00  9.54     0.187 A 
HETATM   24  N3  GNP A 200      23.016  30.834  13.071  1.00 10.76    -0.039 NA
HETATM   25  C5  GNP A 200      21.055  32.314  13.018  1.00  8.26     0.162 A 
HETATM   26  C2  GNP A 200      23.165  30.975  14.290  1.00  9.86     0.772 A 
HETATM   27  N1  GNP A 200      22.250  31.843  15.077  1.00 10.22    -0.029 NA
HETATM   28  N2  GNP A 200      24.033  30.469  15.105  1.00 11.49     0.062 N 
HETATM   29  C6  GNP A 200      21.268  32.445  14.414  1.00 10.19     0.251 A 
HETATM   30  O6  GNP A 200      20.412  33.214  15.140  1.00 11.17    -0.167 OA
HETATM   31  N7  GNP A 200      20.254  32.751  12.105  1.00  8.86    -0.219 NA
HETATM   32  C8  GNP A 200      20.565  32.272  10.883  1.00 11.92     0.182 A 
ENDBRANCH   7  22
TORSDOF 8
ENDMDL
