MODEL 1
REMARK VINA RESULT:    -9.275      0.000      0.000
REMARK INTER + INTRA:         -14.481
REMARK INTER:                 -13.612
REMARK INTRA:                  -0.869
REMARK UNBOUND:                -0.869
REMARK  8 active torsions:
REMARK  status: ('A' for Active; 'I' for Inactive)
REMARK    1  A    between atoms: PA_1  and  O5'_5 
REMARK    2  A    between atoms: PA_1  and  O3A_24 
REMARK    3  A    between atoms: PB_2  and  N3B_23 
REMARK    4  A    between atoms: PB_2  and  O3A_24 
REMARK    5  A    between atoms: PG_3  and  N3B_23 
REMARK    6  A    between atoms: C5'_4  and  O5'_5 
REMARK    7  A    between atoms: C5'_4  and  C4'_6 
REMARK    8  A    between atoms: C1'_12  and  N9_32 
ROOT
HETATM    1  C4' GNP A 200       2.743  46.696  17.527  1.00 11.60     0.181 C 
HETATM    2  O4' GNP A 200       1.479  47.256  18.005  1.00 10.96    -0.331 OA
HETATM    3  C3' GNP A 200       3.505  47.866  16.885  1.00 12.08     0.216 C 
HETATM    4  O3' GNP A 200       3.127  47.928  15.487  1.00 14.40    -0.218 OA
HETATM    5  C2' GNP A 200       2.925  49.101  17.643  1.00 12.17     0.234 C 
HETATM    6  O2' GNP A 200       2.890  50.339  16.881  1.00 13.60    -0.216 OA
HETATM    7  C1' GNP A 200       1.447  48.697  17.822  1.00 11.60     0.241 C 
ENDROOT
BRANCH   1   8
HETATM    8  C5' GNP A 200       3.483  46.022  18.611  1.00 10.62     0.187 C 
BRANCH   8   9
HETATM    9  O5' GNP A 200       4.190  44.854  18.133  1.00  9.72    -0.268 OA
BRANCH   9  10
HETATM   10  PA  GNP A 200       3.456  43.545  17.848  1.00 10.32     0.418 P 
HETATM   11  O1A GNP A 200       2.076  43.564  18.512  1.00  9.87    -0.624 OA
HETATM   12  O2A GNP A 200       4.360  42.354  18.092  1.00 11.09    -0.624 OA
BRANCH  10  13
HETATM   13  O3A GNP A 200       3.246  43.637  16.175  1.00  9.21    -0.185 OA
BRANCH  13  14
HETATM   14  PB  GNP A 200       4.328  43.516  15.068  1.00  8.42     0.401 P 
HETATM   15  O1B GNP A 200       3.619  42.781  14.001  1.00  8.14    -0.628 OA
HETATM   16  O2B GNP A 200       5.527  42.947  15.586  1.00  8.71    -0.628 OA
BRANCH  14  17
HETATM   17  N3B GNP A 200       4.570  45.181  14.527  1.00  9.58    -0.091 NA
BRANCH  17  18
HETATM   18  PG  GNP A 200       6.023  45.855  14.321  1.00  9.51     0.404 P 
HETATM   19  O1G GNP A 200       6.830  44.992  13.320  1.00 10.72    -0.621 OA
HETATM   20  O2G GNP A 200       6.667  46.018  15.565  1.00 10.01    -0.621 OA
HETATM   21  O3G GNP A 200       5.669  47.228  13.686  1.00 11.72    -0.621 OA
ENDBRANCH  17  18
ENDBRANCH  14  17
ENDBRANCH  13  14
ENDBRANCH  10  13
ENDBRANCH   9  10
ENDBRANCH   8   9
ENDBRANCH   1   8
BRANCH   7  22
HETATM   22  N9  GNP A 200       0.698  49.284  18.991  1.00  9.54    -0.269 N 
HETATM   23  C4  GNP A 200      -0.551  49.048  19.305  1.00  9.54     0.187 A 
HETATM   24  N3  GNP A 200      -1.441  48.252  18.749  1.00 10.76    -0.039 NA
HETATM   25  C5  GNP A 200      -0.728  49.928  20.401  1.00  8.26     0.162 A 
HETATM   26  C2  GNP A 200      -2.580  48.182  19.224  1.00  9.86     0.772 A 
HETATM   27  N1  GNP A 200      -2.970  48.999  20.402  1.00 10.22    -0.029 NA
HETATM   28  N2  GNP A 200      -3.607  47.479  18.869  1.00 11.49     0.062 N 
HETATM   29  C6  GNP A 200      -2.047  49.810  20.910  1.00 10.19     0.251 A 
HETATM   30  O6  GNP A 200      -2.414  50.581  21.968  1.00 11.17    -0.167 OA
HETATM   31  N7  GNP A 200       0.364  50.568  20.652  1.00  8.86    -0.219 NA
HETATM   32  C8  GNP A 200       1.353  50.243  19.795  1.00 11.92     0.182 A 
ENDBRANCH   7  22
TORSDOF 8
ENDMDL
MODEL 2
REMARK VINA RESULT:    -8.361      1.317      2.621
REMARK INTER + INTRA:         -13.140
REMARK INTER:                 -12.992
REMARK INTRA:                  -0.148
REMARK UNBOUND:                -0.869
REMARK  8 active torsions:
REMARK  status: ('A' for Active; 'I' for Inactive)
REMARK    1  A    between atoms: PA_1  and  O5'_5 
REMARK    2  A    between atoms: PA_1  and  O3A_24 
REMARK    3  A    between atoms: PB_2  and  N3B_23 
REMARK    4  A    between atoms: PB_2  and  O3A_24 
REMARK    5  A    between atoms: PG_3  and  N3B_23 
REMARK    6  A    between atoms: C5'_4  and  O5'_5 
REMARK    7  A    between atoms: C5'_4  and  C4'_6 
REMARK    8  A    between atoms: C1'_12  and  N9_32 
ROOT
HETATM    1  C4' GNP A 200       2.531  46.825  17.661  1.00 11.60     0.181 C 
HETATM    2  O4' GNP A 200       1.330  47.521  18.123  1.00 10.96    -0.331 OA
HETATM    3  C3' GNP A 200       3.406  47.898  16.994  1.00 12.08     0.216 C 
HETATM    4  O3' GNP A 200       3.035  47.967  15.594  1.00 14.40    -0.218 OA
HETATM    5  C2' GNP A 200       2.952  49.202  17.723  1.00 12.17     0.234 C 
HETATM    6  O2' GNP A 200       3.041  50.420  16.933  1.00 13.60    -0.216 OA
HETATM    7  C1' GNP A 200       1.442  48.953  17.908  1.00 11.60     0.241 C 
ENDROOT
BRANCH   1   8
HETATM    8  C5' GNP A 200       3.199  46.106  18.761  1.00 10.62     0.187 C 
BRANCH   8   9
HETATM    9  O5' GNP A 200       4.019  45.019  18.273  1.00  9.72    -0.268 OA
BRANCH   9  10
HETATM   10  PA  GNP A 200       3.404  43.835  17.529  1.00 10.32     0.418 P 
HETATM   11  O1A GNP A 200       1.912  43.728  17.859  1.00  9.87    -0.624 OA
HETATM   12  O2A GNP A 200       4.267  42.598  17.674  1.00 11.09    -0.624 OA
BRANCH  10  13
HETATM   13  O3A GNP A 200       3.562  44.329  15.923  1.00  9.21    -0.185 OA
BRANCH  13  14
HETATM   14  PB  GNP A 200       4.463  43.714  14.817  1.00  8.42     0.401 P 
HETATM   15  O1B GNP A 200       3.496  42.961  13.993  1.00  8.14    -0.628 OA
HETATM   16  O2B GNP A 200       5.553  42.995  15.389  1.00  8.71    -0.628 OA
BRANCH  14  17
HETATM   17  N3B GNP A 200       5.013  45.112  13.889  1.00  9.58    -0.091 NA
BRANCH  17  18
HETATM   18  PG  GNP A 200       6.201  46.096  14.367  1.00  9.51     0.404 P 
HETATM   19  O1G GNP A 200       7.506  45.681  13.646  1.00 10.72    -0.621 OA
HETATM   20  O2G GNP A 200       6.310  46.082  15.774  1.00 10.01    -0.621 OA
HETATM   21  O3G GNP A 200       5.718  47.481  13.854  1.00 11.72    -0.621 OA
ENDBRANCH  17  18
ENDBRANCH  14  17
ENDBRANCH  13  14
ENDBRANCH  10  13
ENDBRANCH   9  10
ENDBRANCH   8   9
ENDBRANCH   1   8
BRANCH   7  22
HETATM   22  N9  GNP A 200       0.756  49.638  19.062  1.00  9.54    -0.269 N 
HETATM   23  C4  GNP A 200       1.345  50.223  20.074  1.00  9.54     0.187 A 
HETATM   24  N3  GNP A 200       2.623  50.403  20.337  1.00 10.76    -0.039 NA
HETATM   25  C5  GNP A 200       0.230  50.585  20.869  1.00  8.26     0.162 A 
HETATM   26  C2  GNP A 200       2.958  50.998  21.367  1.00  9.86     0.772 A 
HETATM   27  N1  GNP A 200       1.941  51.496  22.329  1.00 10.22    -0.029 NA
HETATM   28  N2  GNP A 200       4.127  51.302  21.831  1.00 11.49     0.062 N 
HETATM   29  C6  GNP A 200       0.665  51.263  22.036  1.00 10.19     0.251 A 
HETATM   30  O6  GNP A 200      -0.264  51.691  22.932  1.00 11.17    -0.167 OA
HETATM   31  N7  GNP A 200      -0.871  50.227  20.298  1.00  8.86    -0.219 NA
HETATM   32  C8  GNP A 200      -0.654  49.592  19.128  1.00 11.92     0.182 A 
ENDBRANCH   7  22
TORSDOF 8
ENDMDL
MODEL 3
REMARK VINA RESULT:    -8.261      6.678      9.233
REMARK INTER + INTRA:         -12.993
REMARK INTER:                 -12.528
REMARK INTRA:                  -0.466
REMARK UNBOUND:                -0.869
REMARK  8 active torsions:
REMARK  status: ('A' for Active; 'I' for Inactive)
REMARK    1  A    between atoms: PA_1  and  O5'_5 
REMARK    2  A    between atoms: PA_1  and  O3A_24 
REMARK    3  A    between atoms: PB_2  and  N3B_23 
REMARK    4  A    between atoms: PB_2  and  O3A_24 
REMARK    5  A    between atoms: PG_3  and  N3B_23 
REMARK    6  A    between atoms: C5'_4  and  O5'_5 
REMARK    7  A    between atoms: C5'_4  and  C4'_6 
REMARK    8  A    between atoms: C1'_12  and  N9_32 
ROOT
HETATM    1  C4' GNP A 200       5.311  43.366  21.430  1.00 11.60     0.181 C 
HETATM    2  O4' GNP A 200       6.663  42.899  21.737  1.00 10.96    -0.331 OA
HETATM    3  C3' GNP A 200       4.832  44.116  22.683  1.00 12.08     0.216 C 
HETATM    4  O3' GNP A 200       4.187  43.155  23.556  1.00 14.40    -0.218 OA
HETATM    5  C2' GNP A 200       6.174  44.591  23.323  1.00 12.17     0.234 C 
HETATM    6  O2' GNP A 200       6.163  44.712  24.773  1.00 13.60    -0.216 OA
HETATM    7  C1' GNP A 200       7.107  43.400  23.026  1.00 11.60     0.241 C 
ENDROOT
BRANCH   1   8
HETATM    8  C5' GNP A 200       5.284  44.178  20.199  1.00 10.62     0.187 C 
BRANCH   8   9
HETATM    9  O5' GNP A 200       4.553  43.520  19.138  1.00  9.72    -0.268 OA
BRANCH   9  10
HETATM   10  PA  GNP A 200       4.150  44.271  17.870  1.00 10.32     0.418 P 
HETATM   11  O1A GNP A 200       4.876  45.618  17.807  1.00  9.87    -0.624 OA
HETATM   12  O2A GNP A 200       2.647  44.251  17.683  1.00 11.09    -0.624 OA
BRANCH  10  13
HETATM   13  O3A GNP A 200       4.784  43.267  16.670  1.00  9.21    -0.185 OA
BRANCH  13  14
HETATM   14  PB  GNP A 200       4.935  43.566  15.153  1.00  8.42     0.401 P 
HETATM   15  O1B GNP A 200       3.685  43.019  14.589  1.00  8.14    -0.628 OA
HETATM   16  O2B GNP A 200       6.170  43.060  14.654  1.00  8.71    -0.628 OA
BRANCH  14  17
HETATM   17  N3B GNP A 200       4.860  45.329  15.059  1.00  9.58    -0.091 NA
BRANCH  17  18
HETATM   18  PG  GNP A 200       6.000  46.239  14.367  1.00  9.51     0.404 P 
HETATM   19  O1G GNP A 200       7.336  46.012  15.115  1.00 10.72    -0.621 OA
HETATM   20  O2G GNP A 200       5.597  47.591  14.340  1.00 10.01    -0.621 OA
HETATM   21  O3G GNP A 200       6.078  45.648  12.932  1.00 11.72    -0.621 OA
ENDBRANCH  17  18
ENDBRANCH  14  17
ENDBRANCH  13  14
ENDBRANCH  10  13
ENDBRANCH   9  10
ENDBRANCH   8   9
ENDBRANCH   1   8
BRANCH   7  22
HETATM   22  N9  GNP A 200       8.583  43.678  22.919  1.00  9.54    -0.269 N 
HETATM   23  C4  GNP A 200       9.499  43.342  23.793  1.00  9.54     0.187 A 
HETATM   24  N3  GNP A 200       9.403  42.673  24.923  1.00 10.76    -0.039 NA
HETATM   25  C5  GNP A 200      10.652  43.937  23.225  1.00  8.26     0.162 A 
HETATM   26  C2  GNP A 200      10.416  42.463  25.599  1.00  9.86     0.772 A 
HETATM   27  N1  GNP A 200      11.743  42.973  25.166  1.00 10.22    -0.029 NA
HETATM   28  N2  GNP A 200      10.577  41.835  26.718  1.00 11.49     0.062 N 
HETATM   29  C6  GNP A 200      11.785  43.668  24.033  1.00 10.19     0.251 A 
HETATM   30  O6  GNP A 200      12.995  44.161  23.654  1.00 11.17    -0.167 OA
HETATM   31  N7  GNP A 200      10.359  44.530  22.117  1.00  8.86    -0.219 NA
HETATM   32  C8  GNP A 200       9.045  44.441  21.824  1.00 11.92     0.182 A 
ENDBRANCH   7  22
TORSDOF 8
ENDMDL
MODEL 4
REMARK VINA RESULT:    -7.519      2.656      3.125
REMARK INTER + INTRA:         -11.904
REMARK INTER:                 -11.328
REMARK INTRA:                  -0.576
REMARK UNBOUND:                -0.869
REMARK  8 active torsions:
REMARK  status: ('A' for Active; 'I' for Inactive)
REMARK    1  A    between atoms: PA_1  and  O5'_5 
REMARK    2  A    between atoms: PA_1  and  O3A_24 
REMARK    3  A    between atoms: PB_2  and  N3B_23 
REMARK    4  A    between atoms: PB_2  and  O3A_24 
REMARK    5  A    between atoms: PG_3  and  N3B_23 
REMARK    6  A    between atoms: C5'_4  and  O5'_5 
REMARK    7  A    between atoms: C5'_4  and  C4'_6 
REMARK    8  A    between atoms: C1'_12  and  N9_32 
ROOT
HETATM    1  C4' GNP A 200       2.508  47.503  17.088  1.00 11.60     0.181 C 
HETATM    2  O4' GNP A 200       1.340  48.382  17.156  1.00 10.96    -0.331 OA
HETATM    3  C3' GNP A 200       3.580  48.287  16.316  1.00 12.08     0.216 C 
HETATM    4  O3' GNP A 200       3.413  47.998  14.906  1.00 14.40    -0.218 OA
HETATM    5  C2' GNP A 200       3.181  49.769  16.601  1.00 12.17     0.234 C 
HETATM    6  O2' GNP A 200       3.513  50.717  15.548  1.00 13.60    -0.216 OA
HETATM    7  C1' GNP A 200       1.641  49.690  16.599  1.00 11.60     0.241 C 
ENDROOT
BRANCH   1   8
HETATM    8  C5' GNP A 200       2.935  47.064  18.430  1.00 10.62     0.187 C 
BRANCH   8   9
HETATM    9  O5' GNP A 200       3.926  46.013  18.361  1.00  9.72    -0.268 OA
BRANCH   9  10
HETATM   10  PA  GNP A 200       3.596  44.650  17.753  1.00 10.32     0.418 P 
HETATM   11  O1A GNP A 200       2.084  44.411  17.799  1.00  9.87    -0.624 OA
HETATM   12  O2A GNP A 200       4.515  43.577  18.300  1.00 11.09    -0.624 OA
BRANCH  10  13
HETATM   13  O3A GNP A 200       4.052  44.881  16.144  1.00  9.21    -0.185 OA
BRANCH  13  14
HETATM   14  PB  GNP A 200       4.648  43.838  15.160  1.00  8.42     0.401 P 
HETATM   15  O1B GNP A 200       3.443  43.254  14.538  1.00  8.14    -0.628 OA
HETATM   16  O2B GNP A 200       5.544  42.957  15.833  1.00  8.71    -0.628 OA
BRANCH  14  17
HETATM   17  N3B GNP A 200       5.477  44.820  13.949  1.00  9.58    -0.091 NA
BRANCH  17  18
HETATM   18  PG  GNP A 200       6.678  45.844  14.293  1.00  9.51     0.404 P 
HETATM   19  O1G GNP A 200       8.023  45.091  14.157  1.00 10.72    -0.621 OA
HETATM   20  O2G GNP A 200       6.483  46.416  15.568  1.00 10.01    -0.621 OA
HETATM   21  O3G GNP A 200       6.541  46.911  13.171  1.00 11.72    -0.621 OA
ENDBRANCH  17  18
ENDBRANCH  14  17
ENDBRANCH  13  14
ENDBRANCH  10  13
ENDBRANCH   9  10
ENDBRANCH   8   9
ENDBRANCH   1   8
BRANCH   7  22
HETATM   22  N9  GNP A 200       0.887  50.711  17.410  1.00  9.54    -0.269 N 
HETATM   23  C4  GNP A 200       0.428  51.858  16.975  1.00  9.54     0.187 A 
HETATM   24  N3  GNP A 200       0.458  52.395  15.773  1.00 10.76    -0.039 NA
HETATM   25  C5  GNP A 200      -0.085  52.418  18.171  1.00  8.26     0.162 A 
HETATM   26  C2  GNP A 200      -0.050  53.506  15.586  1.00  9.86     0.772 A 
HETATM   27  N1  GNP A 200      -0.677  54.259  16.704  1.00 10.22    -0.029 NA
HETATM   28  N2  GNP A 200      -0.154  54.224  14.515  1.00 11.49     0.062 N 
HETATM   29  C6  GNP A 200      -0.656  53.689  17.905  1.00 10.19     0.251 A 
HETATM   30  O6  GNP A 200      -1.202  54.392  18.933  1.00 11.17    -0.167 OA
HETATM   31  N7  GNP A 200       0.080  51.608  19.161  1.00  8.86    -0.219 NA
HETATM   32  C8  GNP A 200       0.712  50.474  18.792  1.00 11.92     0.182 A 
ENDBRANCH   7  22
TORSDOF 8
ENDMDL
MODEL 5
REMARK VINA RESULT:    -7.223      6.750      9.715
REMARK INTER + INTRA:         -11.469
REMARK INTER:                 -11.025
REMARK INTRA:                  -0.445
REMARK UNBOUND:                -0.869
REMARK  8 active torsions:
REMARK  status: ('A' for Active; 'I' for Inactive)
REMARK    1  A    between atoms: PA_1  and  O5'_5 
REMARK    2  A    between atoms: PA_1  and  O3A_24 
REMARK    3  A    between atoms: PB_2  and  N3B_23 
REMARK    4  A    between atoms: PB_2  and  O3A_24 
REMARK    5  A    between atoms: PG_3  and  N3B_23 
REMARK    6  A    between atoms: C5'_4  and  O5'_5 
REMARK    7  A    between atoms: C5'_4  and  C4'_6 
REMARK    8  A    between atoms: C1'_12  and  N9_32 
ROOT
HETATM    1  C4' GNP A 200       6.402  43.546  22.548  1.00 11.60     0.181 C 
HETATM    2  O4' GNP A 200       7.677  42.873  22.801  1.00 10.96    -0.331 OA
HETATM    3  C3' GNP A 200       6.240  44.575  23.677  1.00 12.08     0.216 C 
HETATM    4  O3' GNP A 200       5.557  43.924  24.778  1.00 14.40    -0.218 OA
HETATM    5  C2' GNP A 200       7.720  44.871  24.078  1.00 12.17     0.234 C 
HETATM    6  O2' GNP A 200       7.928  45.231  25.471  1.00 13.60    -0.216 OA
HETATM    7  C1' GNP A 200       8.374  43.483  23.920  1.00 11.60     0.241 C 
ENDROOT
BRANCH   1   8
HETATM    8  C5' GNP A 200       6.355  44.129  21.195  1.00 10.62     0.187 C 
BRANCH   8   9
HETATM    9  O5' GNP A 200       5.057  44.692  20.897  1.00  9.72    -0.268 OA
BRANCH   9  10
HETATM   10  PA  GNP A 200       4.186  44.128  19.775  1.00 10.32     0.418 P 
HETATM   11  O1A GNP A 200       2.783  43.823  20.306  1.00  9.87    -0.624 OA
HETATM   12  O2A GNP A 200       4.922  43.046  19.011  1.00 11.09    -0.624 OA
BRANCH  10  13
HETATM   13  O3A GNP A 200       4.087  45.451  18.731  1.00  9.21    -0.185 OA
BRANCH  13  14
HETATM   14  PB  GNP A 200       4.693  45.593  17.308  1.00  8.42     0.401 P 
HETATM   15  O1B GNP A 200       6.113  45.255  17.525  1.00  8.14    -0.628 OA
HETATM   16  O2B GNP A 200       4.389  46.869  16.750  1.00  8.71    -0.628 OA
BRANCH  14  17
HETATM   17  N3B GNP A 200       3.944  44.281  16.393  1.00  9.58    -0.091 NA
BRANCH  17  18
HETATM   18  PG  GNP A 200       4.467  43.781  14.949  1.00  9.51     0.404 P 
HETATM   19  O1G GNP A 200       4.982  45.009  14.159  1.00 10.72    -0.621 OA
HETATM   20  O2G GNP A 200       3.448  43.072  14.278  1.00 10.01    -0.621 OA
HETATM   21  O3G GNP A 200       5.650  42.846  15.325  1.00 11.72    -0.621 OA
ENDBRANCH  17  18
ENDBRANCH  14  17
ENDBRANCH  13  14
ENDBRANCH  10  13
ENDBRANCH   9  10
ENDBRANCH   8   9
ENDBRANCH   1   8
BRANCH   7  22
HETATM   22  N9  GNP A 200       9.848  43.435  23.613  1.00  9.54    -0.269 N 
HETATM   23  C4  GNP A 200      10.532  44.342  22.961  1.00  9.54     0.187 A 
HETATM   24  N3  GNP A 200      10.159  45.499  22.454  1.00 10.76    -0.039 NA
HETATM   25  C5  GNP A 200      11.806  43.728  22.892  1.00  8.26     0.162 A 
HETATM   26  C2  GNP A 200      10.987  46.209  21.874  1.00  9.86     0.772 A 
HETATM   27  N1  GNP A 200      12.398  45.768  21.718  1.00 10.22    -0.029 NA
HETATM   28  N2  GNP A 200      10.869  47.368  21.312  1.00 11.49     0.062 N 
HETATM   29  C6  GNP A 200      12.719  44.579  22.219  1.00 10.19     0.251 A 
HETATM   30  O6  GNP A 200      14.003  44.162  22.048  1.00 11.17    -0.167 OA
HETATM   31  N7  GNP A 200      11.792  42.582  23.485  1.00  8.86    -0.219 NA
HETATM   32  C8  GNP A 200      10.574  42.280  23.979  1.00 11.92     0.182 A 
ENDBRANCH   7  22
TORSDOF 8
ENDMDL
MODEL 6
REMARK VINA RESULT:    -7.069      4.923      7.921
REMARK INTER + INTRA:         -11.244
REMARK INTER:                 -10.262
REMARK INTRA:                  -0.982
REMARK UNBOUND:                -0.869
REMARK  8 active torsions:
REMARK  status: ('A' for Active; 'I' for Inactive)
REMARK    1  A    between atoms: PA_1  and  O5'_5 
REMARK    2  A    between atoms: PA_1  and  O3A_24 
REMARK    3  A    between atoms: PB_2  and  N3B_23 
REMARK    4  A    between atoms: PB_2  and  O3A_24 
REMARK    5  A    between atoms: PG_3  and  N3B_23 
REMARK    6  A    between atoms: C5'_4  and  O5'_5 
REMARK    7  A    between atoms: C5'_4  and  C4'_6 
REMARK    8  A    between atoms: C1'_12  and  N9_32 
ROOT
HETATM    1  C4' GNP A 200      -0.513  48.904  18.444  1.00 11.60     0.181 C 
HETATM    2  O4' GNP A 200       0.592  47.966  18.244  1.00 10.96    -0.331 OA
HETATM    3  C3' GNP A 200       0.141  50.262  18.744  1.00 12.08     0.216 C 
HETATM    4  O3' GNP A 200       0.338  50.354  20.177  1.00 14.40    -0.218 OA
HETATM    5  C2' GNP A 200       1.522  50.136  18.029  1.00 12.17     0.234 C 
HETATM    6  O2' GNP A 200       2.610  50.886  18.638  1.00 13.60    -0.216 OA
HETATM    7  C1' GNP A 200       1.871  48.653  18.273  1.00 11.60     0.241 C 
ENDROOT
BRANCH   1   8
HETATM    8  C5' GNP A 200      -1.427  48.921  17.288  1.00 10.62     0.187 C 
BRANCH   8   9
HETATM    9  O5' GNP A 200      -2.793  48.652  17.679  1.00  9.72    -0.268 OA
BRANCH   9  10
HETATM   10  PA  GNP A 200      -3.238  47.251  18.095  1.00 10.32     0.418 P 
HETATM   11  O1A GNP A 200      -3.513  47.216  19.601  1.00  9.87    -0.624 OA
HETATM   12  O2A GNP A 200      -2.326  46.196  17.502  1.00 11.09    -0.624 OA
BRANCH  10  13
HETATM   13  O3A GNP A 200      -4.709  47.110  17.279  1.00  9.21    -0.185 OA
BRANCH  13  14
HETATM   14  PB  GNP A 200      -5.317  45.843  16.617  1.00  8.42     0.401 P 
HETATM   15  O1B GNP A 200      -6.664  46.300  16.220  1.00  8.14    -0.628 OA
HETATM   16  O2B GNP A 200      -5.225  44.718  17.488  1.00  8.71    -0.628 OA
BRANCH  14  17
HETATM   17  N3B GNP A 200      -4.353  45.623  15.154  1.00  9.58    -0.091 NA
BRANCH  17  18
HETATM   18  PG  GNP A 200      -4.813  44.707  13.906  1.00  9.51     0.404 P 
HETATM   19  O1G GNP A 200      -5.795  45.523  13.029  1.00 10.72    -0.621 OA
HETATM   20  O2G GNP A 200      -5.356  43.489  14.367  1.00 10.01    -0.621 OA
HETATM   21  O3G GNP A 200      -3.477  44.476  13.147  1.00 11.72    -0.621 OA
ENDBRANCH  17  18
ENDBRANCH  14  17
ENDBRANCH  13  14
ENDBRANCH  10  13
ENDBRANCH   9  10
ENDBRANCH   8   9
ENDBRANCH   1   8
BRANCH   7  22
HETATM   22  N9  GNP A 200       2.772  47.973  17.276  1.00  9.54    -0.269 N 
HETATM   23  C4  GNP A 200       3.496  46.903  17.492  1.00  9.54     0.187 A 
HETATM   24  N3  GNP A 200       3.605  46.141  18.561  1.00 10.76    -0.039 NA
HETATM   25  C5  GNP A 200       4.192  46.791  16.264  1.00  8.26     0.162 A 
HETATM   26  C2  GNP A 200       4.357  45.161  18.540  1.00  9.86     0.772 A 
HETATM   27  N1  GNP A 200       5.160  44.838  17.332  1.00 10.22    -0.029 NA
HETATM   28  N2  GNP A 200       4.622  44.272  19.442  1.00 11.49     0.062 N 
HETATM   29  C6  GNP A 200       5.039  45.653  16.288  1.00 10.19     0.251 A 
HETATM   30  O6  GNP A 200       5.799  45.376  15.195  1.00 11.17    -0.167 OA
HETATM   31  N7  GNP A 200       3.841  47.732  15.454  1.00  8.86    -0.219 NA
HETATM   32  C8  GNP A 200       2.937  48.567  16.005  1.00 11.92     0.182 A 
ENDBRANCH   7  22
TORSDOF 8
ENDMDL
MODEL 7
REMARK VINA RESULT:    -7.039      5.413      8.168
REMARK INTER + INTRA:         -11.199
REMARK INTER:                 -10.178
REMARK INTRA:                  -1.021
REMARK UNBOUND:                -0.869
REMARK  8 active torsions:
REMARK  status: ('A' for Active; 'I' for Inactive)
REMARK    1  A    between atoms: PA_1  and  O5'_5 
REMARK    2  A    between atoms: PA_1  and  O3A_24 
REMARK    3  A    between atoms: PB_2  and  N3B_23 
REMARK    4  A    between atoms: PB_2  and  O3A_24 
REMARK    5  A    between atoms: PG_3  and  N3B_23 
REMARK    6  A    between atoms: C5'_4  and  O5'_5 
REMARK    7  A    between atoms: C5'_4  and  C4'_6 
REMARK    8  A    between atoms: C1'_12  and  N9_32 
ROOT
HETATM    1  C4' GNP A 200       1.073  50.235  14.618  1.00 11.60     0.181 C 
HETATM    2  O4' GNP A 200       1.205  49.206  15.649  1.00 10.96    -0.331 OA
HETATM    3  C3' GNP A 200       1.850  51.453  15.139  1.00 12.08     0.216 C 
HETATM    4  O3' GNP A 200       0.935  52.266  15.916  1.00 14.40    -0.218 OA
HETATM    5  C2' GNP A 200       2.906  50.799  16.084  1.00 12.17     0.234 C 
HETATM    6  O2' GNP A 200       3.326  51.618  17.210  1.00 13.60    -0.216 OA
HETATM    7  C1' GNP A 200       2.100  49.642  16.708  1.00 11.60     0.241 C 
ENDROOT
BRANCH   1   8
HETATM    8  C5' GNP A 200       1.532  49.748  13.304  1.00 10.62     0.187 C 
BRANCH   8   9
HETATM    9  O5' GNP A 200       1.750  50.835  12.375  1.00  9.72    -0.268 OA
BRANCH   9  10
HETATM   10  PA  GNP A 200       0.965  50.931  11.067  1.00 10.32     0.418 P 
HETATM   11  O1A GNP A 200       1.139  52.324  10.454  1.00  9.87    -0.624 OA
HETATM   12  O2A GNP A 200      -0.438  50.386  11.237  1.00 11.09    -0.624 OA
BRANCH  10  13
HETATM   13  O3A GNP A 200       1.786  49.816  10.101  1.00  9.21    -0.185 OA
BRANCH  13  14
HETATM   14  PB  GNP A 200       1.966  49.838   8.559  1.00  8.42     0.401 P 
HETATM   15  O1B GNP A 200       2.153  48.409   8.234  1.00  8.14    -0.628 OA
HETATM   16  O2B GNP A 200       2.995  50.747   8.178  1.00  8.71    -0.628 OA
BRANCH  14  17
HETATM   17  N3B GNP A 200       0.385  50.341   7.953  1.00  9.58    -0.091 NA
BRANCH  17  18
HETATM   18  PG  GNP A 200      -0.745  49.312   7.430  1.00  9.51     0.404 P 
HETATM   19  O1G GNP A 200      -0.984  48.244   8.525  1.00 10.72    -0.621 OA
HETATM   20  O2G GNP A 200      -0.369  48.763   6.186  1.00 10.01    -0.621 OA
HETATM   21  O3G GNP A 200      -1.993  50.227   7.287  1.00 11.72    -0.621 OA
ENDBRANCH  17  18
ENDBRANCH  14  17
ENDBRANCH  13  14
ENDBRANCH  10  13
ENDBRANCH   9  10
ENDBRANCH   8   9
ENDBRANCH   1   8
BRANCH   7  22
HETATM   22  N9  GNP A 200       2.863  48.432  17.180  1.00  9.54    -0.269 N 
HETATM   23  C4  GNP A 200       3.714  47.730  16.474  1.00  9.54     0.187 A 
HETATM   24  N3  GNP A 200       4.148  47.894  15.241  1.00 10.76    -0.039 NA
HETATM   25  C5  GNP A 200       4.027  46.688  17.379  1.00  8.26     0.162 A 
HETATM   26  C2  GNP A 200       4.969  47.100  14.770  1.00  9.86     0.772 A 
HETATM   27  N1  GNP A 200       5.461  45.946  15.567  1.00 10.22    -0.029 NA
HETATM   28  N2  GNP A 200       5.542  47.056  13.611  1.00 11.49     0.062 N 
HETATM   29  C6  GNP A 200       4.972  45.805  16.795  1.00 10.19     0.251 A 
HETATM   30  O6  GNP A 200       5.398  44.731  17.512  1.00 11.17    -0.167 OA
HETATM   31  N7  GNP A 200       3.394  46.846  18.493  1.00  8.86    -0.219 NA
HETATM   32  C8  GNP A 200       2.598  47.934  18.475  1.00 11.92     0.182 A 
ENDBRANCH   7  22
TORSDOF 8
ENDMDL
MODEL 8
REMARK VINA RESULT:    -6.915      4.432      7.503
REMARK INTER + INTRA:         -11.018
REMARK INTER:                  -9.871
REMARK INTRA:                  -1.146
REMARK UNBOUND:                -0.869
REMARK  8 active torsions:
REMARK  status: ('A' for Active; 'I' for Inactive)
REMARK    1  A    between atoms: PA_1  and  O5'_5 
REMARK    2  A    between atoms: PA_1  and  O3A_24 
REMARK    3  A    between atoms: PB_2  and  N3B_23 
REMARK    4  A    between atoms: PB_2  and  O3A_24 
REMARK    5  A    between atoms: PG_3  and  N3B_23 
REMARK    6  A    between atoms: C5'_4  and  O5'_5 
REMARK    7  A    between atoms: C5'_4  and  C4'_6 
REMARK    8  A    between atoms: C1'_12  and  N9_32 
ROOT
HETATM    1  C4' GNP A 200      -0.269  49.733  18.189  1.00 11.60     0.181 C 
HETATM    2  O4' GNP A 200       0.428  48.507  17.800  1.00 10.96    -0.331 OA
HETATM    3  C3' GNP A 200       0.626  50.410  19.238  1.00 12.08     0.216 C 
HETATM    4  O3' GNP A 200       0.243  49.904  20.542  1.00 14.40    -0.218 OA
HETATM    5  C2' GNP A 200       2.045  49.877  18.863  1.00 12.17     0.234 C 
HETATM    6  O2' GNP A 200       2.976  49.749  19.973  1.00 13.60    -0.216 OA
HETATM    7  C1' GNP A 200       1.736  48.430  18.428  1.00 11.60     0.241 C 
ENDROOT
BRANCH   1   8
HETATM    8  C5' GNP A 200      -0.570  50.581  17.021  1.00 10.62     0.187 C 
BRANCH   8   9
HETATM    9  O5' GNP A 200       0.217  50.205  15.867  1.00  9.72    -0.268 OA
BRANCH   9  10
HETATM   10  PA  GNP A 200       0.614  51.234  14.809  1.00 10.32     0.418 P 
HETATM   11  O1A GNP A 200       2.109  51.550  14.923  1.00  9.87    -0.624 OA
HETATM   12  O2A GNP A 200      -0.369  52.386  14.779  1.00 11.09    -0.624 OA
BRANCH  10  13
HETATM   13  O3A GNP A 200       0.360  50.365  13.384  1.00  9.21    -0.185 OA
BRANCH  13  14
HETATM   14  PB  GNP A 200       0.267  50.912  11.934  1.00  8.42     0.401 P 
HETATM   15  O1B GNP A 200       1.494  51.725  11.816  1.00  8.14    -0.628 OA
HETATM   16  O2B GNP A 200      -0.984  51.558  11.712  1.00  8.71    -0.628 OA
BRANCH  14  17
HETATM   17  N3B GNP A 200       0.455  49.476  10.924  1.00  9.58    -0.091 NA
BRANCH  17  18
HETATM   18  PG  GNP A 200       0.898  49.522   9.371  1.00  9.51     0.404 P 
HETATM   19  O1G GNP A 200       0.392  50.848   8.753  1.00 10.72    -0.621 OA
HETATM   20  O2G GNP A 200       0.431  48.376   8.695  1.00 10.01    -0.621 OA
HETATM   21  O3G GNP A 200       2.449  49.528   9.464  1.00 11.72    -0.621 OA
ENDBRANCH  17  18
ENDBRANCH  14  17
ENDBRANCH  13  14
ENDBRANCH  10  13
ENDBRANCH   9  10
ENDBRANCH   8   9
ENDBRANCH   1   8
BRANCH   7  22
HETATM   22  N9  GNP A 200       2.672  47.780  17.443  1.00  9.54    -0.269 N 
HETATM   23  C4  GNP A 200       3.438  46.742  17.673  1.00  9.54     0.187 A 
HETATM   24  N3  GNP A 200       3.569  45.994  18.749  1.00 10.76    -0.039 NA
HETATM   25  C5  GNP A 200       4.148  46.650  16.452  1.00  8.26     0.162 A 
HETATM   26  C2  GNP A 200       4.361  45.045  18.741  1.00  9.86     0.772 A 
HETATM   27  N1  GNP A 200       5.187  44.747  17.542  1.00 10.22    -0.029 NA
HETATM   28  N2  GNP A 200       4.654  44.175  19.653  1.00 11.49     0.062 N 
HETATM   29  C6  GNP A 200       5.041  45.549  16.492  1.00 10.19     0.251 A 
HETATM   30  O6  GNP A 200       5.820  45.295  15.406  1.00 11.17    -0.167 OA
HETATM   31  N7  GNP A 200       3.765  47.570  15.631  1.00  8.86    -0.219 NA
HETATM   32  C8  GNP A 200       2.823  48.371  16.169  1.00 11.92     0.182 A 
ENDBRANCH   7  22
TORSDOF 8
ENDMDL
MODEL 9
REMARK VINA RESULT:    -6.882      4.130      8.403
REMARK INTER + INTRA:         -10.969
REMARK INTER:                 -10.017
REMARK INTRA:                  -0.952
REMARK UNBOUND:                -0.869
REMARK  8 active torsions:
REMARK  status: ('A' for Active; 'I' for Inactive)
REMARK    1  A    between atoms: PA_1  and  O5'_5 
REMARK    2  A    between atoms: PA_1  and  O3A_24 
REMARK    3  A    between atoms: PB_2  and  N3B_23 
REMARK    4  A    between atoms: PB_2  and  O3A_24 
REMARK    5  A    between atoms: PG_3  and  N3B_23 
REMARK    6  A    between atoms: C5'_4  and  O5'_5 
REMARK    7  A    between atoms: C5'_4  and  C4'_6 
REMARK    8  A    between atoms: C1'_12  and  N9_32 
ROOT
HETATM    1  C4' GNP A 200       2.064  50.255  17.673  1.00 11.60     0.181 C 
HETATM    2  O4' GNP A 200       3.002  49.142  17.829  1.00 10.96    -0.331 OA
HETATM    3  C3' GNP A 200       1.898  50.454  16.159  1.00 12.08     0.216 C 
HETATM    4  O3' GNP A 200       2.916  51.388  15.719  1.00 14.40    -0.218 OA
HETATM    5  C2' GNP A 200       2.211  49.032  15.596  1.00 12.17     0.234 C 
HETATM    6  O2' GNP A 200       2.799  49.003  14.266  1.00 13.60    -0.216 OA
HETATM    7  C1' GNP A 200       3.334  48.557  16.541  1.00 11.60     0.241 C 
ENDROOT
BRANCH   1   8
HETATM    8  C5' GNP A 200       0.799  50.003  18.387  1.00 10.62     0.187 C 
BRANCH   8   9
HETATM    9  O5' GNP A 200      -0.024  49.035  17.696  1.00  9.72    -0.268 OA
BRANCH   9  10
HETATM   10  PA  GNP A 200      -1.498  49.313  17.403  1.00 10.32     0.418 P 
HETATM   11  O1A GNP A 200      -1.678  49.672  15.925  1.00  9.87    -0.624 OA
HETATM   12  O2A GNP A 200      -2.093  50.233  18.449  1.00 11.09    -0.624 OA
BRANCH  10  13
HETATM   13  O3A GNP A 200      -2.185  47.794  17.671  1.00  9.21    -0.185 OA
BRANCH  13  14
HETATM   14  PB  GNP A 200      -3.670  47.374  17.502  1.00  8.42     0.401 P 
HETATM   15  O1B GNP A 200      -3.806  47.249  16.037  1.00  8.14    -0.628 OA
HETATM   16  O2B GNP A 200      -4.538  48.281  18.176  1.00  8.71    -0.628 OA
BRANCH  14  17
HETATM   17  N3B GNP A 200      -3.737  45.755  18.204  1.00  9.58    -0.091 NA
BRANCH  17  18
HETATM   18  PG  GNP A 200      -5.085  45.086  18.791  1.00  9.51     0.404 P 
HETATM   19  O1G GNP A 200      -6.238  45.337  17.788  1.00 10.72    -0.621 OA
HETATM   20  O2G GNP A 200      -5.353  45.579  20.085  1.00 10.01    -0.621 OA
HETATM   21  O3G GNP A 200      -4.722  43.575  18.828  1.00 11.72    -0.621 OA
ENDBRANCH  17  18
ENDBRANCH  14  17
ENDBRANCH  13  14
ENDBRANCH  10  13
ENDBRANCH   9  10
ENDBRANCH   8   9
ENDBRANCH   1   8
BRANCH   7  22
HETATM   22  N9  GNP A 200       3.494  47.073  16.747  1.00  9.54    -0.269 N 
HETATM   23  C4  GNP A 200       4.208  46.263  16.006  1.00  9.54     0.187 A 
HETATM   24  N3  GNP A 200       4.971  46.503  14.961  1.00 10.76    -0.039 NA
HETATM   25  C5  GNP A 200       3.906  45.013  16.600  1.00  8.26     0.162 A 
HETATM   26  C2  GNP A 200       5.566  45.570  14.410  1.00  9.86     0.772 A 
HETATM   27  N1  GNP A 200       5.417  44.174  14.896  1.00 10.22    -0.029 NA
HETATM   28  N2  GNP A 200       6.367  45.554  13.394  1.00 11.49     0.062 N 
HETATM   29  C6  GNP A 200       4.612  43.977  15.935  1.00 10.19     0.251 A 
HETATM   30  O6  GNP A 200       4.450  42.695  16.360  1.00 11.17    -0.167 OA
HETATM   31  N7  GNP A 200       3.101  45.164  17.597  1.00  8.86    -0.219 NA
HETATM   32  C8  GNP A 200       2.754  46.455  17.779  1.00 11.92     0.182 A 
ENDBRANCH   7  22
TORSDOF 8
ENDMDL
