MODEL 1
REMARK VINA RESULT:    -8.388      0.000      0.000
REMARK INTER + INTRA:         -13.221
REMARK INTER:                 -12.311
REMARK INTRA:                  -0.910
REMARK UNBOUND:                -0.910
REMARK  8 active torsions:
REMARK  status: ('A' for Active; 'I' for Inactive)
REMARK    1  A    between atoms: PA_1  and  O5'_5 
REMARK    2  A    between atoms: PA_1  and  O3A_24 
REMARK    3  A    between atoms: PB_2  and  N3B_23 
REMARK    4  A    between atoms: PB_2  and  O3A_24 
REMARK    5  A    between atoms: PG_3  and  N3B_23 
REMARK    6  A    between atoms: C5'_4  and  O5'_5 
REMARK    7  A    between atoms: C5'_4  and  C4'_6 
REMARK    8  A    between atoms: C1'_12  and  N9_32 
ROOT
HETATM    1  C4' GNP A 200       2.838  48.311  15.700  1.00 11.60     0.181 C 
HETATM    2  O4' GNP A 200       2.046  48.708  16.864  1.00 10.96    -0.331 OA
HETATM    3  C3' GNP A 200       2.978  49.574  14.837  1.00 12.08     0.216 C 
HETATM    4  O3' GNP A 200       1.853  49.618  13.925  1.00 14.40    -0.218 OA
HETATM    5  C2' GNP A 200       2.846  50.718  15.892  1.00 12.17     0.234 C 
HETATM    6  O2' GNP A 200       2.267  51.957  15.398  1.00 13.60    -0.216 OA
HETATM    7  C1' GNP A 200       1.790  50.138  16.856  1.00 11.60     0.241 C 
ENDROOT
BRANCH   1   8
HETATM    8  C5' GNP A 200       4.124  47.710  16.097  1.00 10.62     0.187 C 
BRANCH   8   9
HETATM    9  O5' GNP A 200       5.087  47.741  15.018  1.00  9.72    -0.268 OA
BRANCH   9  10
HETATM   10  PA  GNP A 200       5.752  46.461  14.512  1.00 10.32     0.418 P 
HETATM   11  O1A GNP A 200       6.981  46.138  15.366  1.00  9.87    -0.624 OA
HETATM   12  O2A GNP A 200       5.906  46.491  13.005  1.00 11.09    -0.624 OA
BRANCH  10  13
HETATM   13  O3A GNP A 200       4.558  45.312  14.837  1.00  9.21    -0.185 OA
BRANCH  13  14
HETATM   14  PB  GNP A 200       4.747  43.811  15.186  1.00  8.42     0.401 P 
HETATM   15  O1B GNP A 200       5.971  43.456  14.441  1.00  8.14    -0.628 OA
HETATM   16  O2B GNP A 200       3.561  43.070  14.909  1.00  8.71    -0.628 OA
BRANCH  14  17
HETATM   17  N3B GNP A 200       5.130  43.819  16.910  1.00  9.58    -0.091 NA
BRANCH  17  18
HETATM   18  PG  GNP A 200       4.060  43.471  18.068  1.00  9.51     0.404 P 
HETATM   19  O1G GNP A 200       2.675  44.018  17.642  1.00 10.72    -0.621 OA
HETATM   20  O2G GNP A 200       4.502  43.975  19.310  1.00 10.01    -0.621 OA
HETATM   21  O3G GNP A 200       4.051  41.917  18.063  1.00 11.72    -0.621 OA
ENDBRANCH  17  18
ENDBRANCH  14  17
ENDBRANCH  13  14
ENDBRANCH  10  13
ENDBRANCH   9  10
ENDBRANCH   8   9
ENDBRANCH   1   8
BRANCH   7  22
HETATM   22  N9  GNP A 200       1.816  50.610  18.287  1.00  9.54    -0.269 N 
HETATM   23  C4  GNP A 200       0.914  50.354  19.202  1.00  9.54     0.187 A 
HETATM   24  N3  GNP A 200      -0.182  49.626  19.147  1.00 10.76    -0.039 NA
HETATM   25  C5  GNP A 200       1.402  51.120  20.289  1.00  8.26     0.162 A 
HETATM   26  C2  GNP A 200      -0.895  49.517  20.150  1.00  9.86     0.772 A 
HETATM   27  N1  GNP A 200      -0.547  50.214  21.416  1.00 10.22    -0.029 NA
HETATM   28  N2  GNP A 200      -1.993  48.862  20.346  1.00 11.49     0.062 N 
HETATM   29  C6  GNP A 200       0.552  50.962  21.413  1.00 10.19     0.251 A 
HETATM   30  O6  GNP A 200       0.853  51.625  22.562  1.00 11.17    -0.167 OA
HETATM   31  N7  GNP A 200       2.497  51.722  19.967  1.00  8.86    -0.219 NA
HETATM   32  C8  GNP A 200       2.855  51.478  18.690  1.00 11.92     0.182 A 
ENDBRANCH   7  22
TORSDOF 8
ENDMDL
MODEL 2
REMARK VINA RESULT:    -7.125      4.851      8.028
REMARK INTER + INTRA:         -11.368
REMARK INTER:                 -10.567
REMARK INTRA:                  -0.801
REMARK UNBOUND:                -0.910
REMARK  8 active torsions:
REMARK  status: ('A' for Active; 'I' for Inactive)
REMARK    1  A    between atoms: PA_1  and  O5'_5 
REMARK    2  A    between atoms: PA_1  and  O3A_24 
REMARK    3  A    between atoms: PB_2  and  N3B_23 
REMARK    4  A    between atoms: PB_2  and  O3A_24 
REMARK    5  A    between atoms: PG_3  and  N3B_23 
REMARK    6  A    between atoms: C5'_4  and  O5'_5 
REMARK    7  A    between atoms: C5'_4  and  C4'_6 
REMARK    8  A    between atoms: C1'_12  and  N9_32 
ROOT
HETATM    1  C4' GNP A 200       1.207  50.276  14.802  1.00 11.60     0.181 C 
HETATM    2  O4' GNP A 200       1.294  49.157  15.741  1.00 10.96    -0.331 OA
HETATM    3  C3' GNP A 200       1.882  51.465  15.502  1.00 12.08     0.216 C 
HETATM    4  O3' GNP A 200       0.868  52.165  16.266  1.00 14.40    -0.218 OA
HETATM    5  C2' GNP A 200       2.880  50.760  16.474  1.00 12.17     0.234 C 
HETATM    6  O2' GNP A 200       3.164  51.481  17.705  1.00 13.60    -0.216 OA
HETATM    7  C1' GNP A 200       2.074  49.520  16.912  1.00 11.60     0.241 C 
ENDROOT
BRANCH   1   8
HETATM    8  C5' GNP A 200       1.799  49.935  13.495  1.00 10.62     0.187 C 
BRANCH   8   9
HETATM    9  O5' GNP A 200       0.792  49.538  12.536  1.00  9.72    -0.268 OA
BRANCH   9  10
HETATM   10  PA  GNP A 200       0.544  50.349  11.265  1.00 10.32     0.418 P 
HETATM   11  O1A GNP A 200       1.498  51.547  11.215  1.00  9.87    -0.624 OA
HETATM   12  O2A GNP A 200      -0.937  50.595  11.060  1.00 11.09    -0.624 OA
BRANCH  10  13
HETATM   13  O3A GNP A 200       1.005  49.249  10.070  1.00  9.21    -0.185 OA
BRANCH  13  14
HETATM   14  PB  GNP A 200       0.490  49.154   8.608  1.00  8.42     0.401 P 
HETATM   15  O1B GNP A 200       0.361  50.572   8.217  1.00  8.14    -0.628 OA
HETATM   16  O2B GNP A 200      -0.672  48.333   8.529  1.00  8.71    -0.628 OA
BRANCH  14  17
HETATM   17  N3B GNP A 200       1.849  48.457   7.722  1.00  9.58    -0.091 NA
BRANCH  17  18
HETATM   18  PG  GNP A 200       2.289  48.924   6.240  1.00  9.51     0.404 P 
HETATM   19  O1G GNP A 200       3.313  50.078   6.369  1.00 10.72    -0.621 OA
HETATM   20  O2G GNP A 200       1.152  49.269   5.478  1.00 10.01    -0.621 OA
HETATM   21  O3G GNP A 200       2.978  47.651   5.676  1.00 11.72    -0.621 OA
ENDBRANCH  17  18
ENDBRANCH  14  17
ENDBRANCH  13  14
ENDBRANCH  10  13
ENDBRANCH   9  10
ENDBRANCH   8   9
ENDBRANCH   1   8
BRANCH   7  22
HETATM   22  N9  GNP A 200       2.846  48.298  17.337  1.00  9.54    -0.269 N 
HETATM   23  C4  GNP A 200       3.692  47.624  16.599  1.00  9.54     0.187 A 
HETATM   24  N3  GNP A 200       4.114  47.830  15.369  1.00 10.76    -0.039 NA
HETATM   25  C5  GNP A 200       4.017  46.553  17.467  1.00  8.26     0.162 A 
HETATM   26  C2  GNP A 200       4.933  47.055  14.865  1.00  9.86     0.772 A 
HETATM   27  N1  GNP A 200       5.437  45.877  15.618  1.00 10.22    -0.029 NA
HETATM   28  N2  GNP A 200       5.495  47.052  13.699  1.00 11.49     0.062 N 
HETATM   29  C6  GNP A 200       4.959  45.694  16.845  1.00 10.19     0.251 A 
HETATM   30  O6  GNP A 200       5.397  44.598  17.522  1.00 11.17    -0.167 OA
HETATM   31  N7  GNP A 200       3.394  46.671  18.591  1.00  8.86    -0.219 NA
HETATM   32  C8  GNP A 200       2.595  47.757  18.617  1.00 11.92     0.182 A 
ENDBRANCH   7  22
TORSDOF 8
ENDMDL
MODEL 3
REMARK VINA RESULT:    -7.122      4.380      8.113
REMARK INTER + INTRA:         -11.363
REMARK INTER:                 -10.033
REMARK INTRA:                  -1.330
REMARK UNBOUND:                -0.910
REMARK  8 active torsions:
REMARK  status: ('A' for Active; 'I' for Inactive)
REMARK    1  A    between atoms: PA_1  and  O5'_5 
REMARK    2  A    between atoms: PA_1  and  O3A_24 
REMARK    3  A    between atoms: PB_2  and  N3B_23 
REMARK    4  A    between atoms: PB_2  and  O3A_24 
REMARK    5  A    between atoms: PG_3  and  N3B_23 
REMARK    6  A    between atoms: C5'_4  and  O5'_5 
REMARK    7  A    between atoms: C5'_4  and  C4'_6 
REMARK    8  A    between atoms: C1'_12  and  N9_32 
ROOT
HETATM    1  C4' GNP A 200       1.488  50.242  16.864  1.00 11.60     0.181 C 
HETATM    2  O4' GNP A 200       1.900  49.238  15.883  1.00 10.96    -0.331 OA
HETATM    3  C3' GNP A 200       1.928  49.697  18.232  1.00 12.08     0.216 C 
HETATM    4  O3' GNP A 200       0.845  48.891  18.759  1.00 14.40    -0.218 OA
HETATM    5  C2' GNP A 200       3.133  48.778  17.855  1.00 12.17     0.234 C 
HETATM    6  O2' GNP A 200       3.341  47.635  18.731  1.00 13.60    -0.216 OA
HETATM    7  C1' GNP A 200       2.666  48.177  16.514  1.00 11.60     0.241 C 
ENDROOT
BRANCH   1   8
HETATM    8  C5' GNP A 200       2.038  51.572  16.543  1.00 10.62     0.187 C 
BRANCH   8   9
HETATM    9  O5' GNP A 200       2.048  51.820  15.119  1.00  9.72    -0.268 OA
BRANCH   9  10
HETATM   10  PA  GNP A 200       1.251  52.973  14.509  1.00 10.32     0.418 P 
HETATM   11  O1A GNP A 200       2.134  54.220  14.405  1.00  9.87    -0.624 OA
HETATM   12  O2A GNP A 200      -0.106  53.101  15.170  1.00 11.09    -0.624 OA
BRANCH  10  13
HETATM   13  O3A GNP A 200       0.960  52.392  12.951  1.00  9.21    -0.185 OA
BRANCH  13  14
HETATM   14  PB  GNP A 200       0.704  50.925  12.510  1.00  8.42     0.401 P 
HETATM   15  O1B GNP A 200      -0.423  50.519  13.372  1.00  8.14    -0.628 OA
HETATM   16  O2B GNP A 200       1.903  50.157  12.575  1.00  8.71    -0.628 OA
BRANCH  14  17
HETATM   17  N3B GNP A 200       0.109  51.076  10.854  1.00  9.58    -0.091 NA
BRANCH  17  18
HETATM   18  PG  GNP A 200      -0.126  49.820   9.867  1.00  9.51     0.404 P 
HETATM   19  O1G GNP A 200      -0.646  50.350   8.508  1.00 10.72    -0.621 OA
HETATM   20  O2G GNP A 200      -0.989  48.880  10.468  1.00 10.01    -0.621 OA
HETATM   21  O3G GNP A 200       1.309  49.244   9.708  1.00 11.72    -0.621 OA
ENDBRANCH  17  18
ENDBRANCH  14  17
ENDBRANCH  13  14
ENDBRANCH  10  13
ENDBRANCH   9  10
ENDBRANCH   8   9
ENDBRANCH   1   8
BRANCH   7  22
HETATM   22  N9  GNP A 200       3.725  47.741  15.536  1.00  9.54    -0.269 N 
HETATM   23  C4  GNP A 200       4.234  46.539  15.431  1.00  9.54     0.187 A 
HETATM   24  N3  GNP A 200       3.954  45.428  16.082  1.00 10.76    -0.039 NA
HETATM   25  C5  GNP A 200       5.227  46.747  14.443  1.00  8.26     0.162 A 
HETATM   26  C2  GNP A 200       4.566  44.390  15.811  1.00  9.86     0.772 A 
HETATM   27  N1  GNP A 200       5.632  44.377  14.775  1.00 10.22    -0.029 NA
HETATM   28  N2  GNP A 200       4.467  43.194  16.294  1.00 11.49     0.062 N 
HETATM   29  C6  GNP A 200       5.899  45.529  14.167  1.00 10.19     0.251 A 
HETATM   30  O6  GNP A 200       6.896  45.523  13.242  1.00 11.17    -0.167 OA
HETATM   31  N7  GNP A 200       5.224  47.974  14.046  1.00  8.86    -0.219 NA
HETATM   32  C8  GNP A 200       4.303  48.717  14.693  1.00 11.92     0.182 A 
ENDBRANCH   7  22
TORSDOF 8
ENDMDL
MODEL 4
REMARK VINA RESULT:    -7.107      4.933      8.317
REMARK INTER + INTRA:         -11.341
REMARK INTER:                 -10.688
REMARK INTRA:                  -0.653
REMARK UNBOUND:                -0.910
REMARK  8 active torsions:
REMARK  status: ('A' for Active; 'I' for Inactive)
REMARK    1  A    between atoms: PA_1  and  O5'_5 
REMARK    2  A    between atoms: PA_1  and  O3A_24 
REMARK    3  A    between atoms: PB_2  and  N3B_23 
REMARK    4  A    between atoms: PB_2  and  O3A_24 
REMARK    5  A    between atoms: PG_3  and  N3B_23 
REMARK    6  A    between atoms: C5'_4  and  O5'_5 
REMARK    7  A    between atoms: C5'_4  and  C4'_6 
REMARK    8  A    between atoms: C1'_12  and  N9_32 
ROOT
HETATM    1  C4' GNP A 200       1.248  48.930  18.408  1.00 11.60     0.181 C 
HETATM    2  O4' GNP A 200       2.191  47.815  18.500  1.00 10.96    -0.331 OA
HETATM    3  C3' GNP A 200       1.780  49.836  17.286  1.00 12.08     0.216 C 
HETATM    4  O3' GNP A 200       2.691  50.794  17.882  1.00 14.40    -0.218 OA
HETATM    5  C2' GNP A 200       2.579  48.834  16.395  1.00 12.17     0.234 C 
HETATM    6  O2' GNP A 200       3.716  49.400  15.687  1.00 13.60    -0.216 OA
HETATM    7  C1' GNP A 200       3.192  47.890  17.450  1.00 11.60     0.241 C 
ENDROOT
BRANCH   1   8
HETATM    8  C5' GNP A 200      -0.132  48.458  18.193  1.00 10.62     0.187 C 
BRANCH   8   9
HETATM    9  O5' GNP A 200      -1.010  48.861  19.269  1.00  9.72    -0.268 OA
BRANCH   9  10
HETATM   10  PA  GNP A 200      -2.514  48.598  19.206  1.00 10.32     0.418 P 
HETATM   11  O1A GNP A 200      -3.233  49.817  18.620  1.00  9.87    -0.624 OA
HETATM   12  O2A GNP A 200      -3.018  48.019  20.512  1.00 11.09    -0.624 OA
BRANCH  10  13
HETATM   13  O3A GNP A 200      -2.588  47.343  18.079  1.00  9.21    -0.185 OA
BRANCH  13  14
HETATM   14  PB  GNP A 200      -3.814  46.467  17.702  1.00  8.42     0.401 P 
HETATM   15  O1B GNP A 200      -4.928  47.435  17.743  1.00  8.14    -0.628 OA
HETATM   16  O2B GNP A 200      -3.898  45.318  18.541  1.00  8.71    -0.628 OA
BRANCH  14  17
HETATM   17  N3B GNP A 200      -3.522  46.030  16.015  1.00  9.58    -0.091 NA
BRANCH  17  18
HETATM   18  PG  GNP A 200      -4.654  45.424  15.036  1.00  9.51     0.404 P 
HETATM   19  O1G GNP A 200      -5.677  44.638  15.892  1.00 10.72    -0.621 OA
HETATM   20  O2G GNP A 200      -4.059  44.646  14.022  1.00 10.01    -0.621 OA
HETATM   21  O3G GNP A 200      -5.312  46.704  14.450  1.00 11.72    -0.621 OA
ENDBRANCH  17  18
ENDBRANCH  14  17
ENDBRANCH  13  14
ENDBRANCH  10  13
ENDBRANCH   9  10
ENDBRANCH   8   9
ENDBRANCH   1   8
BRANCH   7  22
HETATM   22  N9  GNP A 200       3.509  46.480  17.027  1.00  9.54    -0.269 N 
HETATM   23  C4  GNP A 200       4.369  46.124  16.105  1.00  9.54     0.187 A 
HETATM   24  N3  GNP A 200       5.179  46.849  15.360  1.00 10.76    -0.039 NA
HETATM   25  C5  GNP A 200       4.172  44.722  16.073  1.00  8.26     0.162 A 
HETATM   26  C2  GNP A 200       5.920  46.293  14.544  1.00  9.86     0.772 A 
HETATM   27  N1  GNP A 200       5.899  44.817  14.371  1.00 10.22    -0.029 NA
HETATM   28  N2  GNP A 200       6.794  46.777  13.721  1.00 11.49     0.062 N 
HETATM   29  C6  GNP A 200       5.044  44.131  15.123  1.00 10.19     0.251 A 
HETATM   30  O6  GNP A 200       5.003  42.784  14.943  1.00 11.17    -0.167 OA
HETATM   31  N7  GNP A 200       3.279  44.368  16.935  1.00  8.86    -0.219 NA
HETATM   32  C8  GNP A 200       2.769  45.423  17.602  1.00 11.92     0.182 A 
ENDBRANCH   7  22
TORSDOF 8
ENDMDL
MODEL 5
REMARK VINA RESULT:    -7.061      5.412      8.024
REMARK INTER + INTRA:         -11.273
REMARK INTER:                 -10.309
REMARK INTRA:                  -0.965
REMARK UNBOUND:                -0.910
REMARK  8 active torsions:
REMARK  status: ('A' for Active; 'I' for Inactive)
REMARK    1  A    between atoms: PA_1  and  O5'_5 
REMARK    2  A    between atoms: PA_1  and  O3A_24 
REMARK    3  A    between atoms: PB_2  and  N3B_23 
REMARK    4  A    between atoms: PB_2  and  O3A_24 
REMARK    5  A    between atoms: PG_3  and  N3B_23 
REMARK    6  A    between atoms: C5'_4  and  O5'_5 
REMARK    7  A    between atoms: C5'_4  and  C4'_6 
REMARK    8  A    between atoms: C1'_12  and  N9_32 
ROOT
HETATM    1  C4' GNP A 200      -0.603  48.932  18.490  1.00 11.60     0.181 C 
HETATM    2  O4' GNP A 200       0.492  47.983  18.289  1.00 10.96    -0.331 OA
HETATM    3  C3' GNP A 200       0.063  50.277  18.818  1.00 12.08     0.216 C 
HETATM    4  O3' GNP A 200       0.244  50.345  20.254  1.00 14.40    -0.218 OA
HETATM    5  C2' GNP A 200       1.451  50.144  18.117  1.00 12.17     0.234 C 
HETATM    6  O2' GNP A 200       2.541  50.872  18.750  1.00 13.60    -0.216 OA
HETATM    7  C1' GNP A 200       1.779  48.654  18.343  1.00 11.60     0.241 C 
ENDROOT
BRANCH   1   8
HETATM    8  C5' GNP A 200      -1.503  48.977  17.323  1.00 10.62     0.187 C 
BRANCH   8   9
HETATM    9  O5' GNP A 200      -2.871  48.678  17.687  1.00  9.72    -0.268 OA
BRANCH   9  10
HETATM   10  PA  GNP A 200      -3.296  47.263  18.076  1.00 10.32     0.418 P 
HETATM   11  O1A GNP A 200      -3.578  47.198  19.580  1.00  9.87    -0.624 OA
HETATM   12  O2A GNP A 200      -2.366  46.232  17.470  1.00 11.09    -0.624 OA
BRANCH  10  13
HETATM   13  O3A GNP A 200      -4.761  47.114  17.251  1.00  9.21    -0.185 OA
BRANCH  13  14
HETATM   14  PB  GNP A 200      -5.425  45.819  16.709  1.00  8.42     0.401 P 
HETATM   15  O1B GNP A 200      -6.808  46.255  16.432  1.00  8.14    -0.628 OA
HETATM   16  O2B GNP A 200      -5.237  44.733  17.612  1.00  8.71    -0.628 OA
BRANCH  14  17
HETATM   17  N3B GNP A 200      -4.613  45.539  15.165  1.00  9.58    -0.091 NA
BRANCH  17  18
HETATM   18  PG  GNP A 200      -5.185  44.558  14.016  1.00  9.51     0.404 P 
HETATM   19  O1G GNP A 200      -4.079  44.347  12.952  1.00 10.72    -0.621 OA
HETATM   20  O2G GNP A 200      -6.383  45.078  13.481  1.00 10.01    -0.621 OA
HETATM   21  O3G GNP A 200      -5.442  43.240  14.796  1.00 11.72    -0.621 OA
ENDBRANCH  17  18
ENDBRANCH  14  17
ENDBRANCH  13  14
ENDBRANCH  10  13
ENDBRANCH   9  10
ENDBRANCH   8   9
ENDBRANCH   1   8
BRANCH   7  22
HETATM   22  N9  GNP A 200       2.684  47.978  17.346  1.00  9.54    -0.269 N 
HETATM   23  C4  GNP A 200       3.402  46.903  17.559  1.00  9.54     0.187 A 
HETATM   24  N3  GNP A 200       3.502  46.133  18.623  1.00 10.76    -0.039 NA
HETATM   25  C5  GNP A 200       4.106  46.798  16.335  1.00  8.26     0.162 A 
HETATM   26  C2  GNP A 200       4.250  45.151  18.599  1.00  9.86     0.772 A 
HETATM   27  N1  GNP A 200       5.059  44.834  17.394  1.00 10.22    -0.029 NA
HETATM   28  N2  GNP A 200       4.506  44.255  19.497  1.00 11.49     0.062 N 
HETATM   29  C6  GNP A 200       4.948  45.657  16.356  1.00 10.19     0.251 A 
HETATM   30  O6  GNP A 200       5.713  45.384  15.265  1.00 11.17    -0.167 OA
HETATM   31  N7  GNP A 200       3.763  47.746  15.529  1.00  8.86    -0.219 NA
HETATM   32  C8  GNP A 200       2.859  48.580  16.081  1.00 11.92     0.182 A 
ENDBRANCH   7  22
TORSDOF 8
ENDMDL
MODEL 6
REMARK VINA RESULT:    -6.829      5.022      7.894
REMARK INTER + INTRA:         -10.933
REMARK INTER:                 -10.098
REMARK INTRA:                  -0.835
REMARK UNBOUND:                -0.910
REMARK  8 active torsions:
REMARK  status: ('A' for Active; 'I' for Inactive)
REMARK    1  A    between atoms: PA_1  and  O5'_5 
REMARK    2  A    between atoms: PA_1  and  O3A_24 
REMARK    3  A    between atoms: PB_2  and  N3B_23 
REMARK    4  A    between atoms: PB_2  and  O3A_24 
REMARK    5  A    between atoms: PG_3  and  N3B_23 
REMARK    6  A    between atoms: C5'_4  and  O5'_5 
REMARK    7  A    between atoms: C5'_4  and  C4'_6 
REMARK    8  A    between atoms: C1'_12  and  N9_32 
ROOT
HETATM    1  C4' GNP A 200      -0.506  48.825  18.572  1.00 11.60     0.181 C 
HETATM    2  O4' GNP A 200       0.618  47.912  18.360  1.00 10.96    -0.331 OA
HETATM    3  C3' GNP A 200       0.118  50.208  18.816  1.00 12.08     0.216 C 
HETATM    4  O3' GNP A 200       0.358  50.342  20.240  1.00 14.40    -0.218 OA
HETATM    5  C2' GNP A 200       1.480  50.101  18.061  1.00 12.17     0.234 C 
HETATM    6  O2' GNP A 200       2.564  50.896  18.615  1.00 13.60    -0.216 OA
HETATM    7  C1' GNP A 200       1.878  48.635  18.331  1.00 11.60     0.241 C 
ENDROOT
BRANCH   1   8
HETATM    8  C5' GNP A 200      -1.456  48.788  17.445  1.00 10.62     0.187 C 
BRANCH   8   9
HETATM    9  O5' GNP A 200      -2.183  47.538  17.397  1.00  9.72    -0.268 OA
BRANCH   9  10
HETATM   10  PA  GNP A 200      -3.571  47.452  16.762  1.00 10.32     0.418 P 
HETATM   11  O1A GNP A 200      -3.812  48.671  15.867  1.00  9.87    -0.624 OA
HETATM   12  O2A GNP A 200      -4.618  47.096  17.797  1.00 11.09    -0.624 OA
BRANCH  10  13
HETATM   13  O3A GNP A 200      -3.405  46.091  15.777  1.00  9.21    -0.185 OA
BRANCH  13  14
HETATM   14  PB  GNP A 200      -4.098  45.805  14.417  1.00  8.42     0.401 P 
HETATM   15  O1B GNP A 200      -5.437  46.397  14.606  1.00  8.14    -0.628 OA
HETATM   16  O2B GNP A 200      -4.022  44.421  14.087  1.00  8.71    -0.628 OA
BRANCH  14  17
HETATM   17  N3B GNP A 200      -3.207  46.805  13.266  1.00  9.58    -0.091 NA
BRANCH  17  18
HETATM   18  PG  GNP A 200      -3.340  46.663  11.663  1.00  9.51     0.404 P 
HETATM   19  O1G GNP A 200      -2.812  45.268  11.246  1.00 10.72    -0.621 OA
HETATM   20  O2G GNP A 200      -2.673  47.728  11.020  1.00 10.01    -0.621 OA
HETATM   21  O3G GNP A 200      -4.876  46.746  11.444  1.00 11.72    -0.621 OA
ENDBRANCH  17  18
ENDBRANCH  14  17
ENDBRANCH  13  14
ENDBRANCH  10  13
ENDBRANCH   9  10
ENDBRANCH   8   9
ENDBRANCH   1   8
BRANCH   7  22
HETATM   22  N9  GNP A 200       2.766  47.954  17.322  1.00  9.54    -0.269 N 
HETATM   23  C4  GNP A 200       3.493  46.885  17.530  1.00  9.54     0.187 A 
HETATM   24  N3  GNP A 200       3.618  46.125  18.599  1.00 10.76    -0.039 NA
HETATM   25  C5  GNP A 200       4.173  46.771  16.293  1.00  8.26     0.162 A 
HETATM   26  C2  GNP A 200       4.370  45.146  18.569  1.00  9.86     0.772 A 
HETATM   27  N1  GNP A 200       5.157  44.822  17.351  1.00 10.22    -0.029 NA
HETATM   28  N2  GNP A 200       4.649  44.260  19.470  1.00 11.49     0.062 N 
HETATM   29  C6  GNP A 200       5.021  45.635  16.308  1.00 10.19     0.251 A 
HETATM   30  O6  GNP A 200       5.766  45.356  15.204  1.00 11.17    -0.167 OA
HETATM   31  N7  GNP A 200       3.809  47.711  15.486  1.00  8.86    -0.219 NA
HETATM   32  C8  GNP A 200       2.912  48.546  16.048  1.00 11.92     0.182 A 
ENDBRANCH   7  22
TORSDOF 8
ENDMDL
MODEL 7
REMARK VINA RESULT:    -6.810      5.383      7.759
REMARK INTER + INTRA:         -10.905
REMARK INTER:                 -10.605
REMARK INTRA:                  -0.300
REMARK UNBOUND:                -0.910
REMARK  8 active torsions:
REMARK  status: ('A' for Active; 'I' for Inactive)
REMARK    1  A    between atoms: PA_1  and  O5'_5 
REMARK    2  A    between atoms: PA_1  and  O3A_24 
REMARK    3  A    between atoms: PB_2  and  N3B_23 
REMARK    4  A    between atoms: PB_2  and  O3A_24 
REMARK    5  A    between atoms: PG_3  and  N3B_23 
REMARK    6  A    between atoms: C5'_4  and  O5'_5 
REMARK    7  A    between atoms: C5'_4  and  C4'_6 
REMARK    8  A    between atoms: C1'_12  and  N9_32 
ROOT
HETATM    1  C4' GNP A 200       1.492  50.377  13.948  1.00 11.60     0.181 C 
HETATM    2  O4' GNP A 200       1.669  50.765  12.548  1.00 10.96    -0.331 OA
HETATM    3  C3' GNP A 200       0.007  50.012  14.097  1.00 12.08     0.216 C 
HETATM    4  O3' GNP A 200      -0.714  51.218  14.451  1.00 14.40    -0.218 OA
HETATM    5  C2' GNP A 200      -0.378  49.574  12.649  1.00 12.17     0.234 C 
HETATM    6  O2' GNP A 200      -1.763  49.816  12.273  1.00 13.60    -0.216 OA
HETATM    7  C1' GNP A 200       0.447  50.554  11.791  1.00 11.60     0.241 C 
ENDROOT
BRANCH   1   8
HETATM    8  C5' GNP A 200       2.417  49.294  14.332  1.00 10.62     0.187 C 
BRANCH   8   9
HETATM    9  O5' GNP A 200       2.043  48.690  15.592  1.00  9.72    -0.268 OA
BRANCH   9  10
HETATM   10  PA  GNP A 200       3.100  48.251  16.604  1.00 10.32     0.418 P 
HETATM   11  O1A GNP A 200       3.046  49.153  17.840  1.00  9.87    -0.624 OA
HETATM   12  O2A GNP A 200       4.437  48.028  15.929  1.00 11.09    -0.624 OA
BRANCH  10  13
HETATM   13  O3A GNP A 200       2.534  46.720  17.036  1.00  9.21    -0.185 OA
BRANCH  13  14
HETATM   14  PB  GNP A 200       3.367  45.452  17.372  1.00  8.42     0.401 P 
HETATM   15  O1B GNP A 200       2.327  44.418  17.544  1.00  8.14    -0.628 OA
HETATM   16  O2B GNP A 200       4.251  45.697  18.462  1.00  8.71    -0.628 OA
BRANCH  14  17
HETATM   17  N3B GNP A 200       4.244  45.112  15.877  1.00  9.58    -0.091 NA
BRANCH  17  18
HETATM   18  PG  GNP A 200       4.546  43.621  15.334  1.00  9.51     0.404 P 
HETATM   19  O1G GNP A 200       5.908  43.630  14.598  1.00 10.72    -0.621 OA
HETATM   20  O2G GNP A 200       3.479  43.168  14.529  1.00 10.01    -0.621 OA
HETATM   21  O3G GNP A 200       4.648  42.798  16.648  1.00 11.72    -0.621 OA
ENDBRANCH  17  18
ENDBRANCH  14  17
ENDBRANCH  13  14
ENDBRANCH  10  13
ENDBRANCH   9  10
ENDBRANCH   8   9
ENDBRANCH   1   8
BRANCH   7  22
HETATM   22  N9  GNP A 200       0.845  50.109  10.408  1.00  9.54    -0.269 N 
HETATM   23  C4  GNP A 200       0.032  49.874   9.408  1.00  9.54     0.187 A 
HETATM   24  N3  GNP A 200      -1.277  49.989   9.319  1.00 10.76    -0.039 NA
HETATM   25  C5  GNP A 200       0.936  49.402   8.425  1.00  8.26     0.162 A 
HETATM   26  C2  GNP A 200      -1.845  49.713   8.258  1.00  9.86     0.772 A 
HETATM   27  N1  GNP A 200      -1.077  49.229   7.082  1.00 10.22    -0.029 NA
HETATM   28  N2  GNP A 200      -3.095  49.755   7.927  1.00 11.49     0.062 N 
HETATM   29  C6  GNP A 200       0.238  49.099   7.229  1.00 10.19     0.251 A 
HETATM   30  O6  GNP A 200       0.936  48.626   6.162  1.00 11.17    -0.167 OA
HETATM   31  N7  GNP A 200       2.145  49.408   8.878  1.00  8.86    -0.219 NA
HETATM   32  C8  GNP A 200       2.207  49.833  10.156  1.00 11.92     0.182 A 
ENDBRANCH   7  22
TORSDOF 8
ENDMDL
MODEL 8
REMARK VINA RESULT:    -6.808      4.109      6.813
REMARK INTER + INTRA:         -10.902
REMARK INTER:                 -10.497
REMARK INTRA:                  -0.405
REMARK UNBOUND:                -0.910
REMARK  8 active torsions:
REMARK  status: ('A' for Active; 'I' for Inactive)
REMARK    1  A    between atoms: PA_1  and  O5'_5 
REMARK    2  A    between atoms: PA_1  and  O3A_24 
REMARK    3  A    between atoms: PB_2  and  N3B_23 
REMARK    4  A    between atoms: PB_2  and  O3A_24 
REMARK    5  A    between atoms: PG_3  and  N3B_23 
REMARK    6  A    between atoms: C5'_4  and  O5'_5 
REMARK    7  A    between atoms: C5'_4  and  C4'_6 
REMARK    8  A    between atoms: C1'_12  and  N9_32 
ROOT
HETATM    1  C4' GNP A 200       2.617  49.960  15.715  1.00 11.60     0.181 C 
HETATM    2  O4' GNP A 200       2.303  50.365  14.344  1.00 10.96    -0.331 OA
HETATM    3  C3' GNP A 200       1.431  50.429  16.572  1.00 12.08     0.216 C 
HETATM    4  O3' GNP A 200       1.713  51.779  17.020  1.00 14.40    -0.218 OA
HETATM    5  C2' GNP A 200       0.259  50.450  15.542  1.00 12.17     0.234 C 
HETATM    6  O2' GNP A 200      -0.778  51.437  15.798  1.00 13.60    -0.216 OA
HETATM    7  C1' GNP A 200       0.970  50.935  14.262  1.00 11.60     0.241 C 
ENDROOT
BRANCH   1   8
HETATM    8  C5' GNP A 200       2.887  48.514  15.805  1.00 10.62     0.187 C 
BRANCH   8   9
HETATM    9  O5' GNP A 200       2.614  47.998  17.128  1.00  9.72    -0.268 OA
BRANCH   9  10
HETATM   10  PA  GNP A 200       2.944  46.553  17.500  1.00 10.32     0.418 P 
HETATM   11  O1A GNP A 200       1.661  45.802  17.870  1.00  9.87    -0.624 OA
HETATM   12  O2A GNP A 200       4.118  46.494  18.456  1.00 11.09    -0.624 OA
BRANCH  10  13
HETATM   13  O3A GNP A 200       3.509  45.949  16.028  1.00  9.21    -0.185 OA
BRANCH  13  14
HETATM   14  PB  GNP A 200       4.755  45.057  15.776  1.00  8.42     0.401 P 
HETATM   15  O1B GNP A 200       4.421  44.385  14.504  1.00  8.14    -0.628 OA
HETATM   16  O2B GNP A 200       5.034  44.238  16.909  1.00  8.71    -0.628 OA
BRANCH  14  17
HETATM   17  N3B GNP A 200       6.053  46.215  15.467  1.00  9.58    -0.091 NA
BRANCH  17  18
HETATM   18  PG  GNP A 200       7.032  46.144  14.185  1.00  9.51     0.404 P 
HETATM   19  O1G GNP A 200       6.229  45.597  12.979  1.00 10.72    -0.621 OA
HETATM   20  O2G GNP A 200       8.178  45.378  14.486  1.00 10.01    -0.621 OA
HETATM   21  O3G GNP A 200       7.398  47.637  13.958  1.00 11.72    -0.621 OA
ENDBRANCH  17  18
ENDBRANCH  14  17
ENDBRANCH  13  14
ENDBRANCH  10  13
ENDBRANCH   9  10
ENDBRANCH   8   9
ENDBRANCH   1   8
BRANCH   7  22
HETATM   22  N9  GNP A 200       0.383  50.524  12.937  1.00  9.54    -0.269 N 
HETATM   23  C4  GNP A 200       0.699  51.017  11.765  1.00  9.54     0.187 A 
HETATM   24  N3  GNP A 200       1.590  51.926  11.428  1.00 10.76    -0.039 NA
HETATM   25  C5  GNP A 200      -0.220  50.340  10.927  1.00  8.26     0.162 A 
HETATM   26  C2  GNP A 200       1.725  52.240  10.241  1.00  9.86     0.772 A 
HETATM   27  N1  GNP A 200       0.880  51.622   9.185  1.00 10.22    -0.029 NA
HETATM   28  N2  GNP A 200       2.523  53.082   9.669  1.00 11.49     0.062 N 
HETATM   29  C6  GNP A 200      -0.026  50.732   9.578  1.00 10.19     0.251 A 
HETATM   30  O6  GNP A 200      -0.820  50.191   8.615  1.00 11.17    -0.167 OA
HETATM   31  N7  GNP A 200      -0.956  49.533  11.615  1.00  8.86    -0.219 NA
HETATM   32  C8  GNP A 200      -0.665  49.577  12.931  1.00 11.92     0.182 A 
ENDBRANCH   7  22
TORSDOF 8
ENDMDL
MODEL 9
REMARK VINA RESULT:    -6.503      3.878      7.724
REMARK INTER + INTRA:         -10.454
REMARK INTER:                  -9.289
REMARK INTRA:                  -1.165
REMARK UNBOUND:                -0.910
REMARK  8 active torsions:
REMARK  status: ('A' for Active; 'I' for Inactive)
REMARK    1  A    between atoms: PA_1  and  O5'_5 
REMARK    2  A    between atoms: PA_1  and  O3A_24 
REMARK    3  A    between atoms: PB_2  and  N3B_23 
REMARK    4  A    between atoms: PB_2  and  O3A_24 
REMARK    5  A    between atoms: PG_3  and  N3B_23 
REMARK    6  A    between atoms: C5'_4  and  O5'_5 
REMARK    7  A    between atoms: C5'_4  and  C4'_6 
REMARK    8  A    between atoms: C1'_12  and  N9_32 
ROOT
HETATM    1  C4' GNP A 200      -0.035  50.160  17.682  1.00 11.60     0.181 C 
HETATM    2  O4' GNP A 200       0.575  48.905  17.242  1.00 10.96    -0.331 OA
HETATM    3  C3' GNP A 200       0.782  50.619  18.899  1.00 12.08     0.216 C 
HETATM    4  O3' GNP A 200       0.183  50.036  20.083  1.00 14.40    -0.218 OA
HETATM    5  C2' GNP A 200       2.174  49.963  18.636  1.00 12.17     0.234 C 
HETATM    6  O2' GNP A 200       2.934  49.616  19.827  1.00 13.60    -0.216 OA
HETATM    7  C1' GNP A 200       1.774  48.612  18.007  1.00 11.60     0.241 C 
ENDROOT
BRANCH   1   8
HETATM    8  C5' GNP A 200      -0.091  51.149  16.589  1.00 10.62     0.187 C 
BRANCH   8   9
HETATM    9  O5' GNP A 200      -0.029  50.518  15.290  1.00  9.72    -0.268 OA
BRANCH   9  10
HETATM   10  PA  GNP A 200      -1.191  50.622  14.302  1.00 10.32     0.418 P 
HETATM   11  O1A GNP A 200      -1.742  52.051  14.292  1.00  9.87    -0.624 OA
HETATM   12  O2A GNP A 200      -2.163  49.474  14.487  1.00 11.09    -0.624 OA
BRANCH  10  13
HETATM   13  O3A GNP A 200      -0.409  50.340  12.833  1.00  9.21    -0.185 OA
BRANCH  13  14
HETATM   14  PB  GNP A 200       0.892  51.000  12.301  1.00  8.42     0.401 P 
HETATM   15  O1B GNP A 200       1.905  49.951  12.530  1.00  8.14    -0.628 OA
HETATM   16  O2B GNP A 200       1.103  52.273  12.907  1.00  8.71    -0.628 OA
BRANCH  14  17
HETATM   17  N3B GNP A 200       0.619  51.137  10.561  1.00  9.58    -0.091 NA
BRANCH  17  18
HETATM   18  PG  GNP A 200       0.877  49.933   9.516  1.00  9.51     0.404 P 
HETATM   19  O1G GNP A 200       2.362  49.505   9.611  1.00 10.72    -0.621 OA
HETATM   20  O2G GNP A 200       0.489  50.322   8.216  1.00 10.01    -0.621 OA
HETATM   21  O3G GNP A 200      -0.045  48.808  10.064  1.00 11.72    -0.621 OA
ENDBRANCH  17  18
ENDBRANCH  14  17
ENDBRANCH  13  14
ENDBRANCH  10  13
ENDBRANCH   9  10
ENDBRANCH   8   9
ENDBRANCH   1   8
BRANCH   7  22
HETATM   22  N9  GNP A 200       2.758  47.957  17.073  1.00  9.54    -0.269 N 
HETATM   23  C4  GNP A 200       3.506  46.917  17.344  1.00  9.54     0.187 A 
HETATM   24  N3  GNP A 200       3.579  46.170  18.426  1.00 10.76    -0.039 NA
HETATM   25  C5  GNP A 200       4.278  46.819  16.160  1.00  8.26     0.162 A 
HETATM   26  C2  GNP A 200       4.367  45.218  18.461  1.00  9.86     0.772 A 
HETATM   27  N1  GNP A 200       5.252  44.915  17.306  1.00 10.22    -0.029 NA
HETATM   28  N2  GNP A 200       4.610  44.349  19.388  1.00 11.49     0.062 N 
HETATM   29  C6  GNP A 200       5.164  45.715  16.248  1.00 10.19     0.251 A 
HETATM   30  O6  GNP A 200       5.996  45.456  15.205  1.00 11.17    -0.167 OA
HETATM   31  N7  GNP A 200       3.941  47.739  15.320  1.00  8.86    -0.219 NA
HETATM   32  C8  GNP A 200       2.976  48.545  15.807  1.00 11.92     0.182 A 
ENDBRANCH   7  22
TORSDOF 8
ENDMDL
