MODEL 1
REMARK VINA RESULT:    -7.877      0.000      0.000
REMARK INTER + INTRA:         -12.307
REMARK INTER:                 -11.561
REMARK INTRA:                  -0.746
REMARK UNBOUND:                -0.746
REMARK  8 active torsions:
REMARK  status: ('A' for Active; 'I' for Inactive)
REMARK    1  A    between atoms: PA_1  and  O5'_5 
REMARK    2  A    between atoms: PA_1  and  O3A_24 
REMARK    3  A    between atoms: PB_2  and  N3B_23 
REMARK    4  A    between atoms: PB_2  and  O3A_24 
REMARK    5  A    between atoms: PG_3  and  N3B_23 
REMARK    6  A    between atoms: C5'_4  and  O5'_5 
REMARK    7  A    between atoms: C5'_4  and  C4'_6 
REMARK    8  A    between atoms: C1'_12  and  N9_32 
ROOT
HETATM    1  C4' GNP A 200       1.951  47.908  17.576  1.00 11.60     0.181 C 
HETATM    2  O4' GNP A 200       1.256  48.532  18.703  1.00 10.96    -0.331 OA
HETATM    3  C3' GNP A 200       2.569  49.063  16.773  1.00 12.08     0.216 C 
HETATM    4  O3' GNP A 200       1.591  49.495  15.793  1.00 14.40    -0.218 OA
HETATM    5  C2' GNP A 200       2.750  50.169  17.859  1.00 12.17     0.234 C 
HETATM    6  O2' GNP A 200       2.657  51.538  17.376  1.00 13.60    -0.216 OA
HETATM    7  C1' GNP A 200       1.495  49.965  18.732  1.00 11.60     0.241 C 
ENDROOT
BRANCH   1   8
HETATM    8  C5' GNP A 200       2.930  46.903  18.031  1.00 10.62     0.187 C 
BRANCH   8   9
HETATM    9  O5' GNP A 200       2.918  45.724  17.194  1.00  9.72    -0.268 OA
BRANCH   9  10
HETATM   10  PA  GNP A 200       2.957  44.321  17.800  1.00 10.32     0.418 P 
HETATM   11  O1A GNP A 200       1.725  43.527  17.359  1.00  9.87    -0.624 OA
HETATM   12  O2A GNP A 200       3.290  44.379  19.277  1.00 11.09    -0.624 OA
BRANCH  10  13
HETATM   13  O3A GNP A 200       4.315  43.666  17.041  1.00  9.21    -0.185 OA
BRANCH  13  14
HETATM   14  PB  GNP A 200       4.759  43.837  15.563  1.00  8.42     0.401 P 
HETATM   15  O1B GNP A 200       3.485  43.717  14.826  1.00  8.14    -0.628 OA
HETATM   16  O2B GNP A 200       5.806  42.927  15.236  1.00  8.71    -0.628 OA
BRANCH  14  17
HETATM   17  N3B GNP A 200       5.295  45.518  15.471  1.00  9.58    -0.091 NA
BRANCH  17  18
HETATM   18  PG  GNP A 200       6.197  46.107  14.268  1.00  9.51     0.404 P 
HETATM   19  O1G GNP A 200       5.963  47.636  14.179  1.00 10.72    -0.621 OA
HETATM   20  O2G GNP A 200       5.912  45.427  13.065  1.00 10.01    -0.621 OA
HETATM   21  O3G GNP A 200       7.643  45.810  14.754  1.00 11.72    -0.621 OA
ENDBRANCH  17  18
ENDBRANCH  14  17
ENDBRANCH  13  14
ENDBRANCH  10  13
ENDBRANCH   9  10
ENDBRANCH   8   9
ENDBRANCH   1   8
BRANCH   7  22
HETATM   22  N9  GNP A 200       1.574  50.379  20.178  1.00  9.54    -0.269 N 
HETATM   23  C4  GNP A 200       0.558  50.637  20.965  1.00  9.54     0.187 A 
HETATM   24  N3  GNP A 200      -0.738  50.572  20.743  1.00 10.76    -0.039 NA
HETATM   25  C5  GNP A 200       1.224  51.062  22.140  1.00  8.26     0.162 A 
HETATM   26  C2  GNP A 200      -1.529  50.860  21.647  1.00  9.86     0.772 A 
HETATM   27  N1  GNP A 200      -1.041  51.301  22.980  1.00 10.22    -0.029 NA
HETATM   28  N2  GNP A 200      -2.823  50.864  21.677  1.00 11.49     0.062 N 
HETATM   29  C6  GNP A 200       0.276  51.380  23.147  1.00 10.19     0.251 A 
HETATM   30  O6  GNP A 200       0.722  51.814  24.356  1.00 11.17    -0.167 OA
HETATM   31  N7  GNP A 200       2.504  51.013  21.982  1.00  8.86    -0.219 NA
HETATM   32  C8  GNP A 200       2.848  50.599  20.746  1.00 11.92     0.182 A 
ENDBRANCH   7  22
TORSDOF 8
ENDMDL
MODEL 2
REMARK VINA RESULT:    -7.286      4.524      8.214
REMARK INTER + INTRA:         -11.440
REMARK INTER:                 -10.362
REMARK INTRA:                  -1.079
REMARK UNBOUND:                -0.746
REMARK  8 active torsions:
REMARK  status: ('A' for Active; 'I' for Inactive)
REMARK    1  A    between atoms: PA_1  and  O5'_5 
REMARK    2  A    between atoms: PA_1  and  O3A_24 
REMARK    3  A    between atoms: PB_2  and  N3B_23 
REMARK    4  A    between atoms: PB_2  and  O3A_24 
REMARK    5  A    between atoms: PG_3  and  N3B_23 
REMARK    6  A    between atoms: C5'_4  and  O5'_5 
REMARK    7  A    between atoms: C5'_4  and  C4'_6 
REMARK    8  A    between atoms: C1'_12  and  N9_32 
ROOT
HETATM    1  C4' GNP A 200       1.776  49.805  18.580  1.00 11.60     0.181 C 
HETATM    2  O4' GNP A 200       2.789  48.750  18.560  1.00 10.96    -0.331 OA
HETATM    3  C3' GNP A 200       1.575  50.221  17.115  1.00 12.08     0.216 C 
HETATM    4  O3' GNP A 200       2.520  51.281  16.821  1.00 14.40    -0.218 OA
HETATM    5  C2' GNP A 200       1.977  48.927  16.340  1.00 12.17     0.234 C 
HETATM    6  O2' GNP A 200       2.546  49.144  15.019  1.00 13.60    -0.216 OA
HETATM    7  C1' GNP A 200       3.143  48.393  17.197  1.00 11.60     0.241 C 
ENDROOT
BRANCH   1   8
HETATM    8  C5' GNP A 200       0.541  49.359  19.251  1.00 10.62     0.187 C 
BRANCH   8   9
HETATM    9  O5' GNP A 200      -0.278  48.543  18.382  1.00  9.72    -0.268 OA
BRANCH   9  10
HETATM   10  PA  GNP A 200      -1.802  48.658  18.390  1.00 10.32     0.418 P 
HETATM   11  O1A GNP A 200      -2.221  50.065  17.954  1.00  9.87    -0.624 OA
HETATM   12  O2A GNP A 200      -2.381  48.095  19.672  1.00 11.09    -0.624 OA
BRANCH  10  13
HETATM   13  O3A GNP A 200      -2.226  47.572  17.169  1.00  9.21    -0.185 OA
BRANCH  13  14
HETATM   14  PB  GNP A 200      -3.539  47.532  16.340  1.00  8.42     0.401 P 
HETATM   15  O1B GNP A 200      -3.281  48.521  15.275  1.00  8.14    -0.628 OA
HETATM   16  O2B GNP A 200      -4.676  47.733  17.175  1.00  8.71    -0.628 OA
BRANCH  14  17
HETATM   17  N3B GNP A 200      -3.533  45.922  15.613  1.00  9.58    -0.091 NA
BRANCH  17  18
HETATM   18  PG  GNP A 200      -4.098  45.603  14.134  1.00  9.51     0.404 P 
HETATM   19  O1G GNP A 200      -3.000  45.952  13.100  1.00 10.72    -0.621 OA
HETATM   20  O2G GNP A 200      -5.311  46.291  13.915  1.00 10.01    -0.621 OA
HETATM   21  O3G GNP A 200      -4.324  44.067  14.184  1.00 11.72    -0.621 OA
ENDBRANCH  17  18
ENDBRANCH  14  17
ENDBRANCH  13  14
ENDBRANCH  10  13
ENDBRANCH   9  10
ENDBRANCH   8   9
ENDBRANCH   1   8
BRANCH   7  22
HETATM   22  N9  GNP A 200       3.407  46.910  17.172  1.00  9.54    -0.269 N 
HETATM   23  C4  GNP A 200       4.104  46.264  16.271  1.00  9.54     0.187 A 
HETATM   24  N3  GNP A 200       4.764  46.703  15.218  1.00 10.76    -0.039 NA
HETATM   25  C5  GNP A 200       3.927  44.925  16.696  1.00  8.26     0.162 A 
HETATM   26  C2  GNP A 200       5.365  45.902  14.495  1.00  9.86     0.772 A 
HETATM   27  N1  GNP A 200       5.340  44.443  14.782  1.00 10.22    -0.029 NA
HETATM   28  N2  GNP A 200       6.079  46.085  13.432  1.00 11.49     0.062 N 
HETATM   29  C6  GNP A 200       4.636  44.046  15.838  1.00 10.19     0.251 A 
HETATM   30  O6  GNP A 200       4.587  42.709  16.081  1.00 11.17    -0.167 OA
HETATM   31  N7  GNP A 200       3.200  44.878  17.761  1.00  8.86    -0.219 NA
HETATM   32  C8  GNP A 200       2.793  46.102  18.154  1.00 11.92     0.182 A 
ENDBRANCH   7  22
TORSDOF 8
ENDMDL
MODEL 3
REMARK VINA RESULT:    -7.159      4.642      8.727
REMARK INTER + INTRA:         -11.253
REMARK INTER:                 -10.867
REMARK INTRA:                  -0.387
REMARK UNBOUND:                -0.746
REMARK  8 active torsions:
REMARK  status: ('A' for Active; 'I' for Inactive)
REMARK    1  A    between atoms: PA_1  and  O5'_5 
REMARK    2  A    between atoms: PA_1  and  O3A_24 
REMARK    3  A    between atoms: PB_2  and  N3B_23 
REMARK    4  A    between atoms: PB_2  and  O3A_24 
REMARK    5  A    between atoms: PG_3  and  N3B_23 
REMARK    6  A    between atoms: C5'_4  and  O5'_5 
REMARK    7  A    between atoms: C5'_4  and  C4'_6 
REMARK    8  A    between atoms: C1'_12  and  N9_32 
ROOT
HETATM    1  C4' GNP A 200       1.204  49.596  17.904  1.00 11.60     0.181 C 
HETATM    2  O4' GNP A 200       2.083  48.484  18.268  1.00 10.96    -0.331 OA
HETATM    3  C3' GNP A 200       1.855  50.263  16.683  1.00 12.08     0.216 C 
HETATM    4  O3' GNP A 200       2.767  51.281  17.166  1.00 14.40    -0.218 OA
HETATM    5  C2' GNP A 200       2.665  49.088  16.050  1.00 12.17     0.234 C 
HETATM    6  O2' GNP A 200       3.875  49.476  15.342  1.00 13.60    -0.216 OA
HETATM    7  C1' GNP A 200       3.157  48.332  17.301  1.00 11.60     0.241 C 
ENDROOT
BRANCH   1   8
HETATM    8  C5' GNP A 200      -0.179  49.141  17.672  1.00 10.62     0.187 C 
BRANCH   8   9
HETATM    9  O5' GNP A 200      -0.849  48.805  18.909  1.00  9.72    -0.268 OA
BRANCH   9  10
HETATM   10  PA  GNP A 200      -2.357  48.559  18.953  1.00 10.32     0.418 P 
HETATM   11  O1A GNP A 200      -3.101  49.776  18.394  1.00  9.87    -0.624 OA
HETATM   12  O2A GNP A 200      -2.777  48.012  20.302  1.00 11.09    -0.624 OA
BRANCH  10  13
HETATM   13  O3A GNP A 200      -2.521  47.284  17.859  1.00  9.21    -0.185 OA
BRANCH  13  14
HETATM   14  PB  GNP A 200      -3.827  46.581  17.399  1.00  8.42     0.401 P 
HETATM   15  O1B GNP A 200      -3.433  45.975  16.112  1.00  8.14    -0.628 OA
HETATM   16  O2B GNP A 200      -4.924  47.492  17.399  1.00  8.71    -0.628 OA
BRANCH  14  17
HETATM   17  N3B GNP A 200      -4.050  45.285  18.578  1.00  9.58    -0.091 NA
BRANCH  17  18
HETATM   18  PG  GNP A 200      -5.365  44.349  18.644  1.00  9.51     0.404 P 
HETATM   19  O1G GNP A 200      -5.894  44.138  17.204  1.00 10.72    -0.621 OA
HETATM   20  O2G GNP A 200      -6.322  44.911  19.515  1.00 10.01    -0.621 OA
HETATM   21  O3G GNP A 200      -4.802  43.017  19.212  1.00 11.72    -0.621 OA
ENDBRANCH  17  18
ENDBRANCH  14  17
ENDBRANCH  13  14
ENDBRANCH  10  13
ENDBRANCH   9  10
ENDBRANCH   8   9
ENDBRANCH   1   8
BRANCH   7  22
HETATM   22  N9  GNP A 200       3.435  46.858  17.163  1.00  9.54    -0.269 N 
HETATM   23  C4  GNP A 200       4.183  46.295  16.247  1.00  9.54     0.187 A 
HETATM   24  N3  GNP A 200       4.893  46.825  15.273  1.00 10.76    -0.039 NA
HETATM   25  C5  GNP A 200       3.996  44.923  16.546  1.00  8.26     0.162 A 
HETATM   26  C2  GNP A 200       5.538  46.091  14.517  1.00  9.86     0.772 A 
HETATM   27  N1  GNP A 200       5.510  44.614  14.675  1.00 10.22    -0.029 NA
HETATM   28  N2  GNP A 200       6.305  46.369  13.512  1.00 11.49     0.062 N 
HETATM   29  C6  GNP A 200       4.756  44.124  15.654  1.00 10.19     0.251 A 
HETATM   30  O6  GNP A 200       4.705  42.771  15.779  1.00 11.17    -0.167 OA
HETATM   31  N7  GNP A 200       3.214  44.781  17.563  1.00  8.86    -0.219 NA
HETATM   32  C8  GNP A 200       2.777  45.965  18.038  1.00 11.92     0.182 A 
ENDBRANCH   7  22
TORSDOF 8
ENDMDL
MODEL 4
REMARK VINA RESULT:    -7.024      5.427      8.464
REMARK INTER + INTRA:         -11.055
REMARK INTER:                 -10.280
REMARK INTRA:                  -0.775
REMARK UNBOUND:                -0.746
REMARK  8 active torsions:
REMARK  status: ('A' for Active; 'I' for Inactive)
REMARK    1  A    between atoms: PA_1  and  O5'_5 
REMARK    2  A    between atoms: PA_1  and  O3A_24 
REMARK    3  A    between atoms: PB_2  and  N3B_23 
REMARK    4  A    between atoms: PB_2  and  O3A_24 
REMARK    5  A    between atoms: PG_3  and  N3B_23 
REMARK    6  A    between atoms: C5'_4  and  O5'_5 
REMARK    7  A    between atoms: C5'_4  and  C4'_6 
REMARK    8  A    between atoms: C1'_12  and  N9_32 
ROOT
HETATM    1  C4' GNP A 200       1.071  50.277  14.693  1.00 11.60     0.181 C 
HETATM    2  O4' GNP A 200       1.217  49.176  15.646  1.00 10.96    -0.331 OA
HETATM    3  C3' GNP A 200       1.759  51.487  15.341  1.00 12.08     0.216 C 
HETATM    4  O3' GNP A 200       0.771  52.187  16.139  1.00 14.40    -0.218 OA
HETATM    5  C2' GNP A 200       2.811  50.814  16.278  1.00 12.17     0.234 C 
HETATM    6  O2' GNP A 200       3.141  51.560  17.482  1.00 13.60    -0.216 OA
HETATM    7  C1' GNP A 200       2.044  49.571  16.774  1.00 11.60     0.241 C 
ENDROOT
BRANCH   1   8
HETATM    8  C5' GNP A 200       1.607  49.921  13.366  1.00 10.62     0.187 C 
BRANCH   8   9
HETATM    9  O5' GNP A 200       1.628  51.058  12.473  1.00  9.72    -0.268 OA
BRANCH   9  10
HETATM   10  PA  GNP A 200       1.219  50.922  11.007  1.00 10.32     0.418 P 
HETATM   11  O1A GNP A 200      -0.268  51.252  10.846  1.00  9.87    -0.624 OA
HETATM   12  O2A GNP A 200       1.741  49.627  10.418  1.00 11.09    -0.624 OA
BRANCH  10  13
HETATM   13  O3A GNP A 200       2.121  52.157  10.291  1.00  9.21    -0.185 OA
BRANCH  13  14
HETATM   14  PB  GNP A 200       2.296  52.460   8.778  1.00  8.42     0.401 P 
HETATM   15  O1B GNP A 200       0.905  52.445   8.282  1.00  8.14    -0.628 OA
HETATM   16  O2B GNP A 200       3.225  51.559   8.182  1.00  8.71    -0.628 OA
BRANCH  14  17
HETATM   17  N3B GNP A 200       2.880  54.126   8.742  1.00  9.58    -0.091 NA
BRANCH  17  18
HETATM   18  PG  GNP A 200       4.356  54.570   9.223  1.00  9.51     0.404 P 
HETATM   19  O1G GNP A 200       5.402  53.745   8.434  1.00 10.72    -0.621 OA
HETATM   20  O2G GNP A 200       4.476  54.434  10.622  1.00 10.01    -0.621 OA
HETATM   21  O3G GNP A 200       4.414  56.063   8.797  1.00 11.72    -0.621 OA
ENDBRANCH  17  18
ENDBRANCH  14  17
ENDBRANCH  13  14
ENDBRANCH  10  13
ENDBRANCH   9  10
ENDBRANCH   8   9
ENDBRANCH   1   8
BRANCH   7  22
HETATM   22  N9  GNP A 200       2.853  48.367  17.183  1.00  9.54    -0.269 N 
HETATM   23  C4  GNP A 200       3.714  47.724  16.435  1.00  9.54     0.187 A 
HETATM   24  N3  GNP A 200       4.124  47.953  15.205  1.00 10.76    -0.039 NA
HETATM   25  C5  GNP A 200       4.075  46.655  17.291  1.00  8.26     0.162 A 
HETATM   26  C2  GNP A 200       4.962  47.207  14.689  1.00  9.86     0.772 A 
HETATM   27  N1  GNP A 200       5.503  46.037  15.429  1.00 10.22    -0.029 NA
HETATM   28  N2  GNP A 200       5.518  47.230  13.521  1.00 11.49     0.062 N 
HETATM   29  C6  GNP A 200       5.037  45.828  16.657  1.00 10.19     0.251 A 
HETATM   30  O6  GNP A 200       5.509  44.739  17.321  1.00 11.17    -0.167 OA
HETATM   31  N7  GNP A 200       3.454  46.745  18.419  1.00  8.86    -0.219 NA
HETATM   32  C8  GNP A 200       2.624  47.807  18.459  1.00 11.92     0.182 A 
ENDBRANCH   7  22
TORSDOF 8
ENDMDL
MODEL 5
REMARK VINA RESULT:    -7.023      4.264      7.571
REMARK INTER + INTRA:         -11.055
REMARK INTER:                  -9.888
REMARK INTRA:                  -1.167
REMARK UNBOUND:                -0.746
REMARK  8 active torsions:
REMARK  status: ('A' for Active; 'I' for Inactive)
REMARK    1  A    between atoms: PA_1  and  O5'_5 
REMARK    2  A    between atoms: PA_1  and  O3A_24 
REMARK    3  A    between atoms: PB_2  and  N3B_23 
REMARK    4  A    between atoms: PB_2  and  O3A_24 
REMARK    5  A    between atoms: PG_3  and  N3B_23 
REMARK    6  A    between atoms: C5'_4  and  O5'_5 
REMARK    7  A    between atoms: C5'_4  and  C4'_6 
REMARK    8  A    between atoms: C1'_12  and  N9_32 
ROOT
HETATM    1  C4' GNP A 200      -0.275  49.900  18.066  1.00 11.60     0.181 C 
HETATM    2  O4' GNP A 200       0.412  48.669  17.674  1.00 10.96    -0.331 OA
HETATM    3  C3' GNP A 200       0.604  50.544  19.149  1.00 12.08     0.216 C 
HETATM    4  O3' GNP A 200       0.179  50.023  20.434  1.00 14.40    -0.218 OA
HETATM    5  C2' GNP A 200       2.023  49.994  18.801  1.00 12.17     0.234 C 
HETATM    6  O2' GNP A 200       2.923  49.831  19.933  1.00 13.60    -0.216 OA
HETATM    7  C1' GNP A 200       1.702  48.560  18.334  1.00 11.60     0.241 C 
ENDROOT
BRANCH   1   8
HETATM    8  C5' GNP A 200      -0.531  50.772  16.905  1.00 10.62     0.187 C 
BRANCH   8   9
HETATM    9  O5' GNP A 200       0.244  50.372  15.751  1.00  9.72    -0.268 OA
BRANCH   9  10
HETATM   10  PA  GNP A 200       0.681  51.389  14.698  1.00 10.32     0.418 P 
HETATM   11  O1A GNP A 200       2.143  51.784  14.929  1.00  9.87    -0.624 OA
HETATM   12  O2A GNP A 200      -0.350  52.489  14.547  1.00 11.09    -0.624 OA
BRANCH  10  13
HETATM   13  O3A GNP A 200       0.593  50.469  13.285  1.00  9.21    -0.185 OA
BRANCH  13  14
HETATM   14  PB  GNP A 200       0.447  50.973  11.824  1.00  8.42     0.401 P 
HETATM   15  O1B GNP A 200       1.439  52.065  11.757  1.00  8.14    -0.628 OA
HETATM   16  O2B GNP A 200      -0.910  51.287  11.525  1.00  8.71    -0.628 OA
BRANCH  14  17
HETATM   17  N3B GNP A 200       1.041  49.625  10.848  1.00  9.58    -0.091 NA
BRANCH  17  18
HETATM   18  PG  GNP A 200       1.099  49.644   9.234  1.00  9.51     0.404 P 
HETATM   19  O1G GNP A 200       2.520  49.225   8.786  1.00 10.72    -0.621 OA
HETATM   20  O2G GNP A 200       0.708  50.908   8.745  1.00 10.01    -0.621 OA
HETATM   21  O3G GNP A 200       0.067  48.548   8.848  1.00 11.72    -0.621 OA
ENDBRANCH  17  18
ENDBRANCH  14  17
ENDBRANCH  13  14
ENDBRANCH  10  13
ENDBRANCH   9  10
ENDBRANCH   8   9
ENDBRANCH   1   8
BRANCH   7  22
HETATM   22  N9  GNP A 200       2.653  47.911  17.363  1.00  9.54    -0.269 N 
HETATM   23  C4  GNP A 200       3.401  46.862  17.598  1.00  9.54     0.187 A 
HETATM   24  N3  GNP A 200       3.501  46.099  18.667  1.00 10.76    -0.039 NA
HETATM   25  C5  GNP A 200       4.138  46.775  16.391  1.00  8.26     0.162 A 
HETATM   26  C2  GNP A 200       4.282  45.143  18.666  1.00  9.86     0.772 A 
HETATM   27  N1  GNP A 200       5.131  44.848  17.482  1.00 10.22    -0.029 NA
HETATM   28  N2  GNP A 200       4.546  44.259  19.574  1.00 11.49     0.062 N 
HETATM   29  C6  GNP A 200       5.018  45.664  16.438  1.00 10.19     0.251 A 
HETATM   30  O6  GNP A 200       5.818  45.413  15.368  1.00 11.17    -0.167 OA
HETATM   31  N7  GNP A 200       3.783  47.708  15.573  1.00  8.86    -0.219 NA
HETATM   32  C8  GNP A 200       2.838  48.514  16.099  1.00 11.92     0.182 A 
ENDBRANCH   7  22
TORSDOF 8
ENDMDL
MODEL 6
REMARK VINA RESULT:    -7.018      4.571      8.470
REMARK INTER + INTRA:         -11.047
REMARK INTER:                 -10.435
REMARK INTRA:                  -0.612
REMARK UNBOUND:                -0.746
REMARK  8 active torsions:
REMARK  status: ('A' for Active; 'I' for Inactive)
REMARK    1  A    between atoms: PA_1  and  O5'_5 
REMARK    2  A    between atoms: PA_1  and  O3A_24 
REMARK    3  A    between atoms: PB_2  and  N3B_23 
REMARK    4  A    between atoms: PB_2  and  O3A_24 
REMARK    5  A    between atoms: PG_3  and  N3B_23 
REMARK    6  A    between atoms: C5'_4  and  O5'_5 
REMARK    7  A    between atoms: C5'_4  and  C4'_6 
REMARK    8  A    between atoms: C1'_12  and  N9_32 
ROOT
HETATM    1  C4' GNP A 200       2.255  49.226  17.851  1.00 11.60     0.181 C 
HETATM    2  O4' GNP A 200       3.434  48.416  17.545  1.00 10.96    -0.331 OA
HETATM    3  C3' GNP A 200       1.899  49.958  16.547  1.00 12.08     0.216 C 
HETATM    4  O3' GNP A 200       2.626  51.212  16.529  1.00 14.40    -0.218 OA
HETATM    5  C2' GNP A 200       2.474  49.000  15.457  1.00 12.17     0.234 C 
HETATM    6  O2' GNP A 200       2.919  49.646  14.232  1.00 13.60    -0.216 OA
HETATM    7  C1' GNP A 200       3.764  48.489  16.132  1.00 11.60     0.241 C 
ENDROOT
BRANCH   1   8
HETATM    8  C5' GNP A 200       1.158  48.406  18.396  1.00 10.62     0.187 C 
BRANCH   8   9
HETATM    9  O5' GNP A 200      -0.054  48.543  17.619  1.00  9.72    -0.268 OA
BRANCH   9  10
HETATM   10  PA  GNP A 200      -1.401  48.807  18.290  1.00 10.32     0.418 P 
HETATM   11  O1A GNP A 200      -2.212  49.805  17.458  1.00  9.87    -0.624 OA
HETATM   12  O2A GNP A 200      -1.225  49.075  19.770  1.00 11.09    -0.624 OA
BRANCH  10  13
HETATM   13  O3A GNP A 200      -2.136  47.292  18.173  1.00  9.21    -0.185 OA
BRANCH  13  14
HETATM   14  PB  GNP A 200      -3.618  46.972  17.836  1.00  8.42     0.401 P 
HETATM   15  O1B GNP A 200      -3.608  46.909  16.361  1.00  8.14    -0.628 OA
HETATM   16  O2B GNP A 200      -4.496  47.908  18.457  1.00  8.71    -0.628 OA
BRANCH  14  17
HETATM   17  N3B GNP A 200      -3.853  45.336  18.459  1.00  9.58    -0.091 NA
BRANCH  17  18
HETATM   18  PG  GNP A 200      -5.282  44.584  18.489  1.00  9.51     0.404 P 
HETATM   19  O1G GNP A 200      -5.795  44.440  17.035  1.00 10.72    -0.621 OA
HETATM   20  O2G GNP A 200      -6.179  45.272  19.333  1.00 10.01    -0.621 OA
HETATM   21  O3G GNP A 200      -4.917  43.191  19.073  1.00 11.72    -0.621 OA
ENDBRANCH  17  18
ENDBRANCH  14  17
ENDBRANCH  13  14
ENDBRANCH  10  13
ENDBRANCH   9  10
ENDBRANCH   8   9
ENDBRANCH   1   8
BRANCH   7  22
HETATM   22  N9  GNP A 200       4.281  47.135  15.719  1.00  9.54    -0.269 N 
HETATM   23  C4  GNP A 200       4.008  45.993  16.299  1.00  9.54     0.187 A 
HETATM   24  N3  GNP A 200       3.223  45.714  17.319  1.00 10.76    -0.039 NA
HETATM   25  C5  GNP A 200       4.832  45.108  15.563  1.00  8.26     0.162 A 
HETATM   26  C2  GNP A 200       3.109  44.545  17.702  1.00  9.86     0.772 A 
HETATM   27  N1  GNP A 200       3.863  43.447  17.042  1.00 10.22    -0.029 NA
HETATM   28  N2  GNP A 200       2.405  44.027  18.656  1.00 11.49     0.062 N 
HETATM   29  C6  GNP A 200       4.666  43.782  16.037  1.00 10.19     0.251 A 
HETATM   30  O6  GNP A 200       5.380  42.781  15.455  1.00 11.17    -0.167 OA
HETATM   31  N7  GNP A 200       5.479  45.745  14.646  1.00  8.86    -0.219 NA
HETATM   32  C8  GNP A 200       5.213  47.067  14.660  1.00 11.92     0.182 A 
ENDBRANCH   7  22
TORSDOF 8
ENDMDL
MODEL 7
REMARK VINA RESULT:    -6.889      4.892      7.807
REMARK INTER + INTRA:         -10.857
REMARK INTER:                  -9.880
REMARK INTRA:                  -0.977
REMARK UNBOUND:                -0.746
REMARK  8 active torsions:
REMARK  status: ('A' for Active; 'I' for Inactive)
REMARK    1  A    between atoms: PA_1  and  O5'_5 
REMARK    2  A    between atoms: PA_1  and  O3A_24 
REMARK    3  A    between atoms: PB_2  and  N3B_23 
REMARK    4  A    between atoms: PB_2  and  O3A_24 
REMARK    5  A    between atoms: PG_3  and  N3B_23 
REMARK    6  A    between atoms: C5'_4  and  O5'_5 
REMARK    7  A    between atoms: C5'_4  and  C4'_6 
REMARK    8  A    between atoms: C1'_12  and  N9_32 
ROOT
HETATM    1  C4' GNP A 200      -0.492  48.773  18.573  1.00 11.60     0.181 C 
HETATM    2  O4' GNP A 200       0.655  47.888  18.373  1.00 10.96    -0.331 OA
HETATM    3  C3' GNP A 200       0.092  50.186  18.735  1.00 12.08     0.216 C 
HETATM    4  O3' GNP A 200       0.365  50.396  20.143  1.00 14.40    -0.218 OA
HETATM    5  C2' GNP A 200       1.436  50.086  17.947  1.00 12.17     0.234 C 
HETATM    6  O2' GNP A 200       2.507  50.941  18.432  1.00 13.60    -0.216 OA
HETATM    7  C1' GNP A 200       1.889  48.648  18.274  1.00 11.60     0.241 C 
ENDROOT
BRANCH   1   8
HETATM    8  C5' GNP A 200      -1.470  48.651  17.477  1.00 10.62     0.187 C 
BRANCH   8   9
HETATM    9  O5' GNP A 200      -1.948  47.294  17.332  1.00  9.72    -0.268 OA
BRANCH   9  10
HETATM   10  PA  GNP A 200      -3.443  46.976  17.320  1.00 10.32     0.418 P 
HETATM   11  O1A GNP A 200      -4.241  48.205  17.767  1.00  9.87    -0.624 OA
HETATM   12  O2A GNP A 200      -3.720  45.649  17.995  1.00 11.09    -0.624 OA
BRANCH  10  13
HETATM   13  O3A GNP A 200      -3.720  46.730  15.673  1.00  9.21    -0.185 OA
BRANCH  13  14
HETATM   14  PB  GNP A 200      -4.913  45.995  15.004  1.00  8.42     0.401 P 
HETATM   15  O1B GNP A 200      -6.084  46.642  15.629  1.00  8.14    -0.628 OA
HETATM   16  O2B GNP A 200      -4.782  44.582  15.138  1.00  8.71    -0.628 OA
BRANCH  14  17
HETATM   17  N3B GNP A 200      -4.834  46.505  13.315  1.00  9.58    -0.091 NA
BRANCH  17  18
HETATM   18  PG  GNP A 200      -3.489  46.451  12.423  1.00  9.51     0.404 P 
HETATM   19  O1G GNP A 200      -2.796  45.086  12.656  1.00 10.72    -0.621 OA
HETATM   20  O2G GNP A 200      -2.662  47.555  12.719  1.00 10.01    -0.621 OA
HETATM   21  O3G GNP A 200      -4.042  46.535  10.974  1.00 11.72    -0.621 OA
ENDBRANCH  17  18
ENDBRANCH  14  17
ENDBRANCH  13  14
ENDBRANCH  10  13
ENDBRANCH   9  10
ENDBRANCH   8   9
ENDBRANCH   1   8
BRANCH   7  22
HETATM   22  N9  GNP A 200       2.772  47.948  17.275  1.00  9.54    -0.269 N 
HETATM   23  C4  GNP A 200       3.496  46.879  17.497  1.00  9.54     0.187 A 
HETATM   24  N3  GNP A 200       3.619  46.135  18.577  1.00 10.76    -0.039 NA
HETATM   25  C5  GNP A 200       4.172  46.744  16.260  1.00  8.26     0.162 A 
HETATM   26  C2  GNP A 200       4.368  45.153  18.561  1.00  9.86     0.772 A 
HETATM   27  N1  GNP A 200       5.151  44.807  17.346  1.00 10.22    -0.029 NA
HETATM   28  N2  GNP A 200       4.644  44.279  19.474  1.00 11.49     0.062 N 
HETATM   29  C6  GNP A 200       5.016  45.605  16.291  1.00 10.19     0.251 A 
HETATM   30  O6  GNP A 200       5.757  45.306  15.190  1.00 11.17    -0.167 OA
HETATM   31  N7  GNP A 200       3.811  47.673  15.440  1.00  8.86    -0.219 NA
HETATM   32  C8  GNP A 200       2.918  48.520  15.991  1.00 11.92     0.182 A 
ENDBRANCH   7  22
TORSDOF 8
ENDMDL
MODEL 8
REMARK VINA RESULT:    -6.887      5.364      8.368
REMARK INTER + INTRA:         -10.854
REMARK INTER:                  -9.882
REMARK INTRA:                  -0.972
REMARK UNBOUND:                -0.746
REMARK  8 active torsions:
REMARK  status: ('A' for Active; 'I' for Inactive)
REMARK    1  A    between atoms: PA_1  and  O5'_5 
REMARK    2  A    between atoms: PA_1  and  O3A_24 
REMARK    3  A    between atoms: PB_2  and  N3B_23 
REMARK    4  A    between atoms: PB_2  and  O3A_24 
REMARK    5  A    between atoms: PG_3  and  N3B_23 
REMARK    6  A    between atoms: C5'_4  and  O5'_5 
REMARK    7  A    between atoms: C5'_4  and  C4'_6 
REMARK    8  A    between atoms: C1'_12  and  N9_32 
ROOT
HETATM    1  C4' GNP A 200       1.153  50.271  14.616  1.00 11.60     0.181 C 
HETATM    2  O4' GNP A 200       1.272  49.179  15.583  1.00 10.96    -0.331 OA
HETATM    3  C3' GNP A 200       1.828  51.486  15.271  1.00 12.08     0.216 C 
HETATM    4  O3' GNP A 200       0.821  52.195  16.037  1.00 14.40    -0.218 OA
HETATM    5  C2' GNP A 200       2.853  50.819  16.241  1.00 12.17     0.234 C 
HETATM    6  O2' GNP A 200       3.154  51.575  17.446  1.00 13.60    -0.216 OA
HETATM    7  C1' GNP A 200       2.071  49.582  16.728  1.00 11.60     0.241 C 
ENDROOT
BRANCH   1   8
HETATM    8  C5' GNP A 200       1.722  49.903  13.307  1.00 10.62     0.187 C 
BRANCH   8   9
HETATM    9  O5' GNP A 200       1.654  50.997  12.364  1.00  9.72    -0.268 OA
BRANCH   9  10
HETATM   10  PA  GNP A 200       0.850  50.880  11.070  1.00 10.32     0.418 P 
HETATM   11  O1A GNP A 200      -0.076  52.091  10.919  1.00  9.87    -0.624 OA
HETATM   12  O2A GNP A 200       0.256  49.493  10.926  1.00 11.09    -0.624 OA
BRANCH  10  13
HETATM   13  O3A GNP A 200       2.068  50.989   9.907  1.00  9.21    -0.185 OA
BRANCH  13  14
HETATM   14  PB  GNP A 200       1.958  51.532   8.456  1.00  8.42     0.401 P 
HETATM   15  O1B GNP A 200       3.148  50.953   7.802  1.00  8.14    -0.628 OA
HETATM   16  O2B GNP A 200       1.819  52.950   8.451  1.00  8.71    -0.628 OA
BRANCH  14  17
HETATM   17  N3B GNP A 200       0.524  50.729   7.809  1.00  9.58    -0.091 NA
BRANCH  17  18
HETATM   18  PG  GNP A 200       0.531  49.231   7.204  1.00  9.51     0.404 P 
HETATM   19  O1G GNP A 200      -0.932  48.743   7.078  1.00 10.72    -0.621 OA
HETATM   20  O2G GNP A 200       1.336  48.387   7.997  1.00 10.01    -0.621 OA
HETATM   21  O3G GNP A 200       1.154  49.440   5.795  1.00 11.72    -0.621 OA
ENDBRANCH  17  18
ENDBRANCH  14  17
ENDBRANCH  13  14
ENDBRANCH  10  13
ENDBRANCH   9  10
ENDBRANCH   8   9
ENDBRANCH   1   8
BRANCH   7  22
HETATM   22  N9  GNP A 200       2.865  48.381  17.169  1.00  9.54    -0.269 N 
HETATM   23  C4  GNP A 200       3.723  47.711  16.440  1.00  9.54     0.187 A 
HETATM   24  N3  GNP A 200       4.139  47.907  15.206  1.00 10.76    -0.039 NA
HETATM   25  C5  GNP A 200       4.069  46.658  17.322  1.00  8.26     0.162 A 
HETATM   26  C2  GNP A 200       4.971  47.140  14.711  1.00  9.86     0.772 A 
HETATM   27  N1  GNP A 200       5.498  45.982  15.480  1.00 10.22    -0.029 NA
HETATM   28  N2  GNP A 200       5.532  47.130  13.545  1.00 11.49     0.062 N 
HETATM   29  C6  GNP A 200       5.025  45.808  16.711  1.00 10.19     0.251 A 
HETATM   30  O6  GNP A 200       5.483  44.730  17.403  1.00 11.17    -0.167 OA
HETATM   31  N7  GNP A 200       3.445  46.782  18.445  1.00  8.86    -0.219 NA
HETATM   32  C8  GNP A 200       2.626  47.853  18.457  1.00 11.92     0.182 A 
ENDBRANCH   7  22
TORSDOF 8
ENDMDL
MODEL 9
REMARK VINA RESULT:    -6.760     10.252     13.645
REMARK INTER + INTRA:         -10.668
REMARK INTER:                  -9.541
REMARK INTRA:                  -1.127
REMARK UNBOUND:                -0.746
REMARK  8 active torsions:
REMARK  status: ('A' for Active; 'I' for Inactive)
REMARK    1  A    between atoms: PA_1  and  O5'_5 
REMARK    2  A    between atoms: PA_1  and  O3A_24 
REMARK    3  A    between atoms: PB_2  and  N3B_23 
REMARK    4  A    between atoms: PB_2  and  O3A_24 
REMARK    5  A    between atoms: PG_3  and  N3B_23 
REMARK    6  A    between atoms: C5'_4  and  O5'_5 
REMARK    7  A    between atoms: C5'_4  and  C4'_6 
REMARK    8  A    between atoms: C1'_12  and  N9_32 
ROOT
HETATM    1  C4' GNP A 200      -3.354  50.480   8.323  1.00 11.60     0.181 C 
HETATM    2  O4' GNP A 200      -2.002  50.701   7.810  1.00 10.96    -0.331 OA
HETATM    3  C3' GNP A 200      -4.108  49.736   7.210  1.00 12.08     0.216 C 
HETATM    4  O3' GNP A 200      -4.714  50.728   6.343  1.00 14.40    -0.218 OA
HETATM    5  C2' GNP A 200      -2.955  49.008   6.451  1.00 12.17     0.234 C 
HETATM    6  O2' GNP A 200      -3.182  48.793   5.030  1.00 13.60    -0.216 OA
HETATM    7  C1' GNP A 200      -1.820  50.049   6.524  1.00 11.60     0.241 C 
ENDROOT
BRANCH   1   8
HETATM    8  C5' GNP A 200      -3.335  49.768   9.614  1.00 10.62     0.187 C 
BRANCH   8   9
HETATM    9  O5' GNP A 200      -4.051  48.513   9.546  1.00  9.72    -0.268 OA
BRANCH   9  10
HETATM   10  PA  GNP A 200      -3.327  47.177   9.710  1.00 10.32     0.418 P 
HETATM   11  O1A GNP A 200      -1.896  47.416  10.200  1.00  9.87    -0.624 OA
HETATM   12  O2A GNP A 200      -3.539  46.294   8.497  1.00 11.09    -0.624 OA
BRANCH  10  13
HETATM   13  O3A GNP A 200      -4.210  46.470  10.963  1.00  9.21    -0.185 OA
BRANCH  13  14
HETATM   14  PB  GNP A 200      -3.825  46.366  12.464  1.00  8.42     0.401 P 
HETATM   15  O1B GNP A 200      -3.626  47.779  12.845  1.00  8.14    -0.628 OA
HETATM   16  O2B GNP A 200      -2.737  45.466  12.651  1.00  8.71    -0.628 OA
BRANCH  14  17
HETATM   17  N3B GNP A 200      -5.300  45.786  13.243  1.00  9.58    -0.091 NA
BRANCH  17  18
HETATM   18  PG  GNP A 200      -5.322  45.017  14.663  1.00  9.51     0.404 P 
HETATM   19  O1G GNP A 200      -6.764  45.060  15.226  1.00 10.72    -0.621 OA
HETATM   20  O2G GNP A 200      -4.363  45.574  15.536  1.00 10.01    -0.621 OA
HETATM   21  O3G GNP A 200      -4.942  43.564  14.264  1.00 11.72    -0.621 OA
ENDBRANCH  17  18
ENDBRANCH  14  17
ENDBRANCH  13  14
ENDBRANCH  10  13
ENDBRANCH   9  10
ENDBRANCH   8   9
ENDBRANCH   1   8
BRANCH   7  22
HETATM   22  N9  GNP A 200      -0.402  49.544   6.471  1.00  9.54    -0.269 N 
HETATM   23  C4  GNP A 200       0.304  49.334   5.387  1.00  9.54     0.187 A 
HETATM   24  N3  GNP A 200       0.009  49.529   4.119  1.00 10.76    -0.039 NA
HETATM   25  C5  GNP A 200       1.487  48.780   5.934  1.00  8.26     0.162 A 
HETATM   26  C2  GNP A 200       0.843  49.261   3.248  1.00  9.86     0.772 A 
HETATM   27  N1  GNP A 200       2.171  48.699   3.608  1.00 10.22    -0.029 NA
HETATM   28  N2  GNP A 200       0.794  49.372   1.960  1.00 11.49     0.062 N 
HETATM   29  C6  GNP A 200       2.411  48.491   4.898  1.00 10.19     0.251 A 
HETATM   30  O6  GNP A 200       3.615  47.947   5.224  1.00 11.17    -0.167 OA
HETATM   31  N7  GNP A 200       1.410  48.722   7.221  1.00  8.86    -0.219 NA
HETATM   32  C8  GNP A 200       0.226  49.176   7.681  1.00 11.92     0.182 A 
ENDBRANCH   7  22
TORSDOF 8
ENDMDL
