MODEL 1
REMARK VINA RESULT:    -5.639      0.000      0.000
REMARK INTER + INTRA:          -9.738
REMARK INTER:                  -8.277
REMARK INTRA:                  -1.461
REMARK UNBOUND:                -1.461
REMARK  8 active torsions:
REMARK  status: ('A' for Active; 'I' for Inactive)
REMARK    1  A    between atoms: PA_1  and  O5'_5 
REMARK    2  A    between atoms: PA_1  and  O3A_24 
REMARK    3  A    between atoms: PB_2  and  N3B_23 
REMARK    4  A    between atoms: PB_2  and  O3A_24 
REMARK    5  A    between atoms: PG_3  and  N3B_23 
REMARK    6  A    between atoms: C5'_4  and  O5'_5 
REMARK    7  A    between atoms: C5'_4  and  C4'_6 
REMARK    8  A    between atoms: C1'_12  and  N9_32 
ROOT
HETATM    1  C4' GNP A 200       1.113  21.982  23.226  1.00 11.60     0.181 C 
HETATM    2  O4' GNP A 200       2.076  22.802  22.490  1.00 10.96    -0.331 OA
HETATM    3  C3' GNP A 200       1.647  21.900  24.665  1.00 12.08     0.216 C 
HETATM    4  O3' GNP A 200       2.527  20.751  24.747  1.00 14.40    -0.218 OA
HETATM    5  C2' GNP A 200       2.481  23.213  24.789  1.00 12.17     0.234 C 
HETATM    6  O2' GNP A 200       3.620  23.145  25.692  1.00 13.60    -0.216 OA
HETATM    7  C1' GNP A 200       3.094  23.335  23.379  1.00 11.60     0.241 C 
ENDROOT
BRANCH   1   8
HETATM    8  C5' GNP A 200      -0.253  22.526  23.124  1.00 10.62     0.187 C 
BRANCH   8   9
HETATM    9  O5' GNP A 200      -0.327  23.622  22.183  1.00  9.72    -0.268 OA
BRANCH   9  10
HETATM   10  PA  GNP A 200      -1.420  23.678  21.116  1.00 10.32     0.418 P 
HETATM   11  O1A GNP A 200      -2.495  24.690  21.523  1.00  9.87    -0.624 OA
HETATM   12  O2A GNP A 200      -1.854  22.284  20.712  1.00 11.09    -0.624 OA
BRANCH  10  13
HETATM   13  O3A GNP A 200      -0.570  24.304  19.798  1.00  9.21    -0.185 OA
BRANCH  13  14
HETATM   14  PB  GNP A 200       0.052  23.527  18.606  1.00  8.42     0.401 P 
HETATM   15  O1B GNP A 200       0.986  24.513  18.028  1.00  8.14    -0.628 OA
HETATM   16  O2B GNP A 200      -0.963  22.995  17.759  1.00  8.71    -0.628 OA
BRANCH  14  17
HETATM   17  N3B GNP A 200       1.000  22.251  19.377  1.00  9.58    -0.091 NA
BRANCH  17  18
HETATM   18  PG  GNP A 200       1.856  21.151  18.561  1.00  9.51     0.404 P 
HETATM   19  O1G GNP A 200       2.792  20.419  19.554  1.00 10.72    -0.621 OA
HETATM   20  O2G GNP A 200       2.544  21.762  17.491  1.00 10.01    -0.621 OA
HETATM   21  O3G GNP A 200       0.755  20.185  18.043  1.00 11.72    -0.621 OA
ENDBRANCH  17  18
ENDBRANCH  14  17
ENDBRANCH  13  14
ENDBRANCH  10  13
ENDBRANCH   9  10
ENDBRANCH   8   9
ENDBRANCH   1   8
BRANCH   7  22
HETATM   22  N9  GNP A 200       3.447  24.714  22.886  1.00  9.54    -0.269 N 
HETATM   23  C4  GNP A 200       4.654  25.211  22.778  1.00  9.54     0.187 A 
HETATM   24  N3  GNP A 200       5.830  24.669  23.016  1.00 10.76    -0.039 NA
HETATM   25  C5  GNP A 200       4.368  26.538  22.373  1.00  8.26     0.162 A 
HETATM   26  C2  GNP A 200       6.857  25.332  22.838  1.00  9.86     0.772 A 
HETATM   27  N1  GNP A 200       6.786  26.744  22.379  1.00 10.22    -0.029 NA
HETATM   28  N2  GNP A 200       8.105  25.026  22.989  1.00 11.49     0.062 N 
HETATM   29  C6  GNP A 200       5.576  27.257  22.181  1.00 10.19     0.251 A 
HETATM   30  O6  GNP A 200       5.510  28.558  21.791  1.00 11.17    -0.167 OA
HETATM   31  N7  GNP A 200       3.095  26.715  22.260  1.00  8.86    -0.219 NA
HETATM   32  C8  GNP A 200       2.396  25.607  22.580  1.00 11.92     0.182 A 
ENDBRANCH   7  22
TORSDOF 8
ENDMDL
MODEL 2
REMARK VINA RESULT:    -5.600      6.026      8.947
REMARK INTER + INTRA:          -9.681
REMARK INTER:                  -8.240
REMARK INTRA:                  -1.440
REMARK UNBOUND:                -1.461
REMARK  8 active torsions:
REMARK  status: ('A' for Active; 'I' for Inactive)
REMARK    1  A    between atoms: PA_1  and  O5'_5 
REMARK    2  A    between atoms: PA_1  and  O3A_24 
REMARK    3  A    between atoms: PB_2  and  N3B_23 
REMARK    4  A    between atoms: PB_2  and  O3A_24 
REMARK    5  A    between atoms: PG_3  and  N3B_23 
REMARK    6  A    between atoms: C5'_4  and  O5'_5 
REMARK    7  A    between atoms: C5'_4  and  C4'_6 
REMARK    8  A    between atoms: C1'_12  and  N9_32 
ROOT
HETATM    1  C4' GNP A 200      -0.569  23.422  18.942  1.00 11.60     0.181 C 
HETATM    2  O4' GNP A 200      -0.844  23.533  17.509  1.00 10.96    -0.331 OA
HETATM    3  C3' GNP A 200      -1.914  23.083  19.602  1.00 12.08     0.216 C 
HETATM    4  O3' GNP A 200      -2.574  24.330  19.934  1.00 14.40    -0.218 OA
HETATM    5  C2' GNP A 200      -2.685  22.370  18.448  1.00 12.17     0.234 C 
HETATM    6  O2' GNP A 200      -4.131  22.524  18.476  1.00 13.60    -0.216 OA
HETATM    7  C1' GNP A 200      -2.219  23.170  17.214  1.00 11.60     0.241 C 
ENDROOT
BRANCH   1   8
HETATM    8  C5' GNP A 200       0.498  22.442  19.216  1.00 10.62     0.187 C 
BRANCH   8   9
HETATM    9  O5' GNP A 200       0.922  21.758  18.014  1.00  9.72    -0.268 OA
BRANCH   9  10
HETATM   10  PA  GNP A 200       1.549  20.366  18.072  1.00 10.32     0.418 P 
HETATM   11  O1A GNP A 200       1.085  19.637  19.336  1.00  9.87    -0.624 OA
HETATM   12  O2A GNP A 200       3.034  20.429  17.777  1.00 11.09    -0.624 OA
BRANCH  10  13
HETATM   13  O3A GNP A 200       0.838  19.622  16.734  1.00  9.21    -0.185 OA
BRANCH  13  14
HETATM   14  PB  GNP A 200       1.545  18.909  15.549  1.00  8.42     0.401 P 
HETATM   15  O1B GNP A 200       0.410  18.463  14.716  1.00  8.14    -0.628 OA
HETATM   16  O2B GNP A 200       2.455  17.919  16.020  1.00  8.71    -0.628 OA
BRANCH  14  17
HETATM   17  N3B GNP A 200       2.375  20.216  14.700  1.00  9.58    -0.091 NA
BRANCH  17  18
HETATM   18  PG  GNP A 200       3.337  19.987  13.423  1.00  9.51     0.404 P 
HETATM   19  O1G GNP A 200       4.594  19.209  13.885  1.00 10.72    -0.621 OA
HETATM   20  O2G GNP A 200       3.639  21.222  12.810  1.00 10.01    -0.621 OA
HETATM   21  O3G GNP A 200       2.462  19.098  12.497  1.00 11.72    -0.621 OA
ENDBRANCH  17  18
ENDBRANCH  14  17
ENDBRANCH  13  14
ENDBRANCH  10  13
ENDBRANCH   9  10
ENDBRANCH   8   9
ENDBRANCH   1   8
BRANCH   7  22
HETATM   22  N9  GNP A 200      -2.225  22.468  15.881  1.00  9.54    -0.269 N 
HETATM   23  C4  GNP A 200      -2.309  23.040  14.706  1.00  9.54     0.187 A 
HETATM   24  N3  GNP A 200      -2.368  24.313  14.373  1.00 10.76    -0.039 NA
HETATM   25  C5  GNP A 200      -2.370  21.910  13.855  1.00  8.26     0.162 A 
HETATM   26  C2  GNP A 200      -2.439  24.631  13.181  1.00  9.86     0.772 A 
HETATM   27  N1  GNP A 200      -2.481  23.597  12.114  1.00 10.22    -0.029 NA
HETATM   28  N2  GNP A 200      -2.496  25.792  12.613  1.00 11.49     0.062 N 
HETATM   29  C6  GNP A 200      -2.449  22.326  12.501  1.00 10.19     0.251 A 
HETATM   30  O6  GNP A 200      -2.520  21.380  11.526  1.00 11.17    -0.167 OA
HETATM   31  N7  GNP A 200      -2.304  20.819  14.541  1.00  8.86    -0.219 NA
HETATM   32  C8  GNP A 200      -2.222  21.055  15.866  1.00 11.92     0.182 A 
ENDBRANCH   7  22
TORSDOF 8
ENDMDL
MODEL 3
REMARK VINA RESULT:    -5.546      2.032      3.143
REMARK INTER + INTRA:          -9.600
REMARK INTER:                  -8.558
REMARK INTRA:                  -1.042
REMARK UNBOUND:                -1.461
REMARK  8 active torsions:
REMARK  status: ('A' for Active; 'I' for Inactive)
REMARK    1  A    between atoms: PA_1  and  O5'_5 
REMARK    2  A    between atoms: PA_1  and  O3A_24 
REMARK    3  A    between atoms: PB_2  and  N3B_23 
REMARK    4  A    between atoms: PB_2  and  O3A_24 
REMARK    5  A    between atoms: PG_3  and  N3B_23 
REMARK    6  A    between atoms: C5'_4  and  O5'_5 
REMARK    7  A    between atoms: C5'_4  and  C4'_6 
REMARK    8  A    between atoms: C1'_12  and  N9_32 
ROOT
HETATM    1  C4' GNP A 200       1.044  21.953  21.961  1.00 11.60     0.181 C 
HETATM    2  O4' GNP A 200       2.193  22.834  21.751  1.00 10.96    -0.331 OA
HETATM    3  C3' GNP A 200       0.810  21.923  23.479  1.00 12.08     0.216 C 
HETATM    4  O3' GNP A 200       1.605  20.844  24.031  1.00 14.40    -0.218 OA
HETATM    5  C2' GNP A 200       1.397  23.296  23.936  1.00 12.17     0.234 C 
HETATM    6  O2' GNP A 200       1.951  23.320  25.281  1.00 13.60    -0.216 OA
HETATM    7  C1' GNP A 200       2.613  23.449  22.998  1.00 11.60     0.241 C 
ENDROOT
BRANCH   1   8
HETATM    8  C5' GNP A 200      -0.128  22.393  21.182  1.00 10.62     0.187 C 
BRANCH   8   9
HETATM    9  O5' GNP A 200       0.185  23.520  20.332  1.00  9.72    -0.268 OA
BRANCH   9  10
HETATM   10  PA  GNP A 200       0.110  23.410  18.810  1.00 10.32     0.418 P 
HETATM   11  O1A GNP A 200       0.269  21.947  18.384  1.00  9.87    -0.624 OA
HETATM   12  O2A GNP A 200       0.985  24.455  18.148  1.00 11.09    -0.624 OA
BRANCH  10  13
HETATM   13  O3A GNP A 200      -1.484  23.882  18.517  1.00  9.21    -0.185 OA
BRANCH  13  14
HETATM   14  PB  GNP A 200      -2.632  23.039  17.896  1.00  8.42     0.401 P 
HETATM   15  O1B GNP A 200      -3.704  24.037  17.712  1.00  8.14    -0.628 OA
HETATM   16  O2B GNP A 200      -2.916  21.895  18.697  1.00  8.71    -0.628 OA
BRANCH  14  17
HETATM   17  N3B GNP A 200      -2.015  22.590  16.303  1.00  9.58    -0.091 NA
BRANCH  17  18
HETATM   18  PG  GNP A 200      -2.765  22.945  14.917  1.00  9.51     0.404 P 
HETATM   19  O1G GNP A 200      -2.523  24.440  14.594  1.00 10.72    -0.621 OA
HETATM   20  O2G GNP A 200      -4.132  22.605  15.000  1.00 10.01    -0.621 OA
HETATM   21  O3G GNP A 200      -2.023  22.044  13.892  1.00 11.72    -0.621 OA
ENDBRANCH  17  18
ENDBRANCH  14  17
ENDBRANCH  13  14
ENDBRANCH  10  13
ENDBRANCH   9  10
ENDBRANCH   8   9
ENDBRANCH   1   8
BRANCH   7  22
HETATM   22  N9  GNP A 200       3.078  24.845  22.679  1.00  9.54    -0.269 N 
HETATM   23  C4  GNP A 200       4.322  25.253  22.629  1.00  9.54     0.187 A 
HETATM   24  N3  GNP A 200       5.450  24.592  22.792  1.00 10.76    -0.039 NA
HETATM   25  C5  GNP A 200       4.147  26.638  22.393  1.00  8.26     0.162 A 
HETATM   26  C2  GNP A 200       6.528  25.187  22.694  1.00  9.86     0.772 A 
HETATM   27  N1  GNP A 200       6.574  26.646  22.414  1.00 10.22    -0.029 NA
HETATM   28  N2  GNP A 200       7.746  24.764  22.800  1.00 11.49     0.062 N 
HETATM   29  C6  GNP A 200       5.410  27.276  22.287  1.00 10.19     0.251 A 
HETATM   30  O6  GNP A 200       5.452  28.616  22.062  1.00 11.17    -0.167 OA
HETATM   31  N7  GNP A 200       2.893  26.931  22.308  1.00  8.86    -0.219 NA
HETATM   32  C8  GNP A 200       2.105  25.852  22.492  1.00 11.92     0.182 A 
ENDBRANCH   7  22
TORSDOF 8
ENDMDL
MODEL 4
REMARK VINA RESULT:    -5.500      1.919      2.721
REMARK INTER + INTRA:          -9.533
REMARK INTER:                  -8.410
REMARK INTRA:                  -1.123
REMARK UNBOUND:                -1.461
REMARK  8 active torsions:
REMARK  status: ('A' for Active; 'I' for Inactive)
REMARK    1  A    between atoms: PA_1  and  O5'_5 
REMARK    2  A    between atoms: PA_1  and  O3A_24 
REMARK    3  A    between atoms: PB_2  and  N3B_23 
REMARK    4  A    between atoms: PB_2  and  O3A_24 
REMARK    5  A    between atoms: PG_3  and  N3B_23 
REMARK    6  A    between atoms: C5'_4  and  O5'_5 
REMARK    7  A    between atoms: C5'_4  and  C4'_6 
REMARK    8  A    between atoms: C1'_12  and  N9_32 
ROOT
HETATM    1  C4' GNP A 200      -0.523  23.517  22.543  1.00 11.60     0.181 C 
HETATM    2  O4' GNP A 200       0.929  23.695  22.499  1.00 10.96    -0.331 OA
HETATM    3  C3' GNP A 200      -1.022  24.413  23.686  1.00 12.08     0.216 C 
HETATM    4  O3' GNP A 200      -0.996  23.633  24.907  1.00 14.40    -0.218 OA
HETATM    5  C2' GNP A 200       0.075  25.522  23.746  1.00 12.17     0.234 C 
HETATM    6  O2' GNP A 200       0.301  26.104  25.061  1.00 13.60    -0.216 OA
HETATM    7  C1' GNP A 200       1.355  24.719  23.438  1.00 11.60     0.241 C 
ENDROOT
BRANCH   1   8
HETATM    8  C5' GNP A 200      -1.145  23.807  21.238  1.00 10.62     0.187 C 
BRANCH   8   9
HETATM    9  O5' GNP A 200      -0.180  24.303  20.281  1.00  9.72    -0.268 OA
BRANCH   9  10
HETATM   10  PA  GNP A 200       0.116  23.544  18.988  1.00 10.32     0.418 P 
HETATM   11  O1A GNP A 200       0.965  24.413  18.055  1.00  9.87    -0.624 OA
HETATM   12  O2A GNP A 200      -1.141  22.904  18.436  1.00 11.09    -0.624 OA
BRANCH  10  13
HETATM   13  O3A GNP A 200       1.075  22.276  19.556  1.00  9.21    -0.185 OA
BRANCH  13  14
HETATM   14  PB  GNP A 200       0.827  20.750  19.409  1.00  8.42     0.401 P 
HETATM   15  O1B GNP A 200      -0.603  20.620  19.752  1.00  8.14    -0.628 OA
HETATM   16  O2B GNP A 200       1.767  20.004  20.177  1.00  8.71    -0.628 OA
BRANCH  14  17
HETATM   17  N3B GNP A 200       1.010  20.454  17.677  1.00  9.58    -0.091 NA
BRANCH  17  18
HETATM   18  PG  GNP A 200       2.432  20.464  16.911  1.00  9.51     0.404 P 
HETATM   19  O1G GNP A 200       3.289  19.290  17.444  1.00 10.72    -0.621 OA
HETATM   20  O2G GNP A 200       3.055  21.722  17.053  1.00 10.01    -0.621 OA
HETATM   21  O3G GNP A 200       2.020  20.205  15.435  1.00 11.72    -0.621 OA
ENDBRANCH  17  18
ENDBRANCH  14  17
ENDBRANCH  13  14
ENDBRANCH  10  13
ENDBRANCH   9  10
ENDBRANCH   8   9
ENDBRANCH   1   8
BRANCH   7  22
HETATM   22  N9  GNP A 200       2.509  25.456  22.808  1.00  9.54    -0.269 N 
HETATM   23  C4  GNP A 200       3.761  25.399  23.187  1.00  9.54     0.187 A 
HETATM   24  N3  GNP A 200       4.340  24.697  24.139  1.00 10.76    -0.039 NA
HETATM   25  C5  GNP A 200       4.353  26.350  22.320  1.00  8.26     0.162 A 
HETATM   26  C2  GNP A 200       5.558  24.797  24.320  1.00  9.86     0.772 A 
HETATM   27  N1  GNP A 200       6.381  25.717  23.492  1.00 10.22    -0.029 NA
HETATM   28  N2  GNP A 200       6.343  24.215  25.168  1.00 11.49     0.062 N 
HETATM   29  C6  GNP A 200       5.748  26.428  22.565  1.00 10.19     0.251 A 
HETATM   30  O6  GNP A 200       6.497  27.293  21.829  1.00 11.17    -0.167 OA
HETATM   31  N7  GNP A 200       3.469  26.856  21.528  1.00  8.86    -0.219 NA
HETATM   32  C8  GNP A 200       2.235  26.364  21.761  1.00 11.92     0.182 A 
ENDBRANCH   7  22
TORSDOF 8
ENDMDL
MODEL 5
REMARK VINA RESULT:    -5.478      2.429      3.694
REMARK INTER + INTRA:          -9.501
REMARK INTER:                  -8.695
REMARK INTRA:                  -0.806
REMARK UNBOUND:                -1.461
REMARK  8 active torsions:
REMARK  status: ('A' for Active; 'I' for Inactive)
REMARK    1  A    between atoms: PA_1  and  O5'_5 
REMARK    2  A    between atoms: PA_1  and  O3A_24 
REMARK    3  A    between atoms: PB_2  and  N3B_23 
REMARK    4  A    between atoms: PB_2  and  O3A_24 
REMARK    5  A    between atoms: PG_3  and  N3B_23 
REMARK    6  A    between atoms: C5'_4  and  O5'_5 
REMARK    7  A    between atoms: C5'_4  and  C4'_6 
REMARK    8  A    between atoms: C1'_12  and  N9_32 
ROOT
HETATM    1  C4' GNP A 200       1.365  21.729  21.654  1.00 11.60     0.181 C 
HETATM    2  O4' GNP A 200       2.502  22.647  21.722  1.00 10.96    -0.331 OA
HETATM    3  C3' GNP A 200       0.584  21.932  22.962  1.00 12.08     0.216 C 
HETATM    4  O3' GNP A 200       1.125  21.019  23.949  1.00 14.40    -0.218 OA
HETATM    5  C2' GNP A 200       0.948  23.400  23.346  1.00 12.17     0.234 C 
HETATM    6  O2' GNP A 200       0.962  23.685  24.773  1.00 13.60    -0.216 OA
HETATM    7  C1' GNP A 200       2.423  23.488  22.905  1.00 11.60     0.241 C 
ENDROOT
BRANCH   1   8
HETATM    8  C5' GNP A 200       0.563  21.948  20.437  1.00 10.62     0.187 C 
BRANCH   8   9
HETATM    9  O5' GNP A 200       0.762  20.895  19.466  1.00  9.72    -0.268 OA
BRANCH   9  10
HETATM   10  PA  GNP A 200       1.766  21.048  18.324  1.00 10.32     0.418 P 
HETATM   11  O1A GNP A 200       3.005  20.192  18.600  1.00  9.87    -0.624 OA
HETATM   12  O2A GNP A 200       1.960  22.507  17.966  1.00 11.09    -0.624 OA
BRANCH  10  13
HETATM   13  O3A GNP A 200       0.917  20.360  17.037  1.00  9.21    -0.185 OA
BRANCH  13  14
HETATM   14  PB  GNP A 200       1.441  19.352  15.977  1.00  8.42     0.401 P 
HETATM   15  O1B GNP A 200       0.238  19.083  15.164  1.00  8.14    -0.628 OA
HETATM   16  O2B GNP A 200       2.085  18.245  16.601  1.00  8.71    -0.628 OA
BRANCH  14  17
HETATM   17  N3B GNP A 200       2.565  20.305  15.003  1.00  9.58    -0.091 NA
BRANCH  17  18
HETATM   18  PG  GNP A 200       3.319  19.738  13.692  1.00  9.51     0.404 P 
HETATM   19  O1G GNP A 200       2.378  18.739  12.975  1.00 10.72    -0.621 OA
HETATM   20  O2G GNP A 200       4.564  19.177  14.047  1.00 10.01    -0.621 OA
HETATM   21  O3G GNP A 200       3.504  21.018  12.831  1.00 11.72    -0.621 OA
ENDBRANCH  17  18
ENDBRANCH  14  17
ENDBRANCH  13  14
ENDBRANCH  10  13
ENDBRANCH   9  10
ENDBRANCH   8   9
ENDBRANCH   1   8
BRANCH   7  22
HETATM   22  N9  GNP A 200       2.962  24.844  22.532  1.00  9.54    -0.269 N 
HETATM   23  C4  GNP A 200       4.220  25.209  22.556  1.00  9.54     0.187 A 
HETATM   24  N3  GNP A 200       5.307  24.528  22.856  1.00 10.76    -0.039 NA
HETATM   25  C5  GNP A 200       4.114  26.579  22.215  1.00  8.26     0.162 A 
HETATM   26  C2  GNP A 200       6.410  25.082  22.807  1.00  9.86     0.772 A 
HETATM   27  N1  GNP A 200       6.530  26.515  22.434  1.00 10.22    -0.029 NA
HETATM   28  N2  GNP A 200       7.599  24.631  23.040  1.00 11.49     0.062 N 
HETATM   29  C6  GNP A 200       5.403  27.169  22.170  1.00 10.19     0.251 A 
HETATM   30  O6  GNP A 200       5.511  28.489  21.860  1.00 11.17    -0.167 OA
HETATM   31  N7  GNP A 200       2.882  26.903  22.008  1.00  8.86    -0.219 NA
HETATM   32  C8  GNP A 200       2.044  25.864  22.198  1.00 11.92     0.182 A 
ENDBRANCH   7  22
TORSDOF 8
ENDMDL
MODEL 6
REMARK VINA RESULT:    -5.468      7.472     10.366
REMARK INTER + INTRA:          -9.486
REMARK INTER:                  -8.532
REMARK INTRA:                  -0.954
REMARK UNBOUND:                -1.461
REMARK  8 active torsions:
REMARK  status: ('A' for Active; 'I' for Inactive)
REMARK    1  A    between atoms: PA_1  and  O5'_5 
REMARK    2  A    between atoms: PA_1  and  O3A_24 
REMARK    3  A    between atoms: PB_2  and  N3B_23 
REMARK    4  A    between atoms: PB_2  and  O3A_24 
REMARK    5  A    between atoms: PG_3  and  N3B_23 
REMARK    6  A    between atoms: C5'_4  and  O5'_5 
REMARK    7  A    between atoms: C5'_4  and  C4'_6 
REMARK    8  A    between atoms: C1'_12  and  N9_32 
ROOT
HETATM    1  C4' GNP A 200      -3.319  22.253  16.481  1.00 11.60     0.181 C 
HETATM    2  O4' GNP A 200      -4.211  22.878  15.504  1.00 10.96    -0.331 OA
HETATM    3  C3' GNP A 200      -2.284  21.467  15.660  1.00 12.08     0.216 C 
HETATM    4  O3' GNP A 200      -2.809  20.133  15.445  1.00 14.40    -0.218 OA
HETATM    5  C2' GNP A 200      -2.262  22.249  14.310  1.00 12.17     0.234 C 
HETATM    6  O2' GNP A 200      -1.953  21.451  13.133  1.00 13.60    -0.216 OA
HETATM    7  C1' GNP A 200      -3.744  22.645  14.148  1.00 11.60     0.241 C 
ENDROOT
BRANCH   1   8
HETATM    8  C5' GNP A 200      -2.728  23.250  17.392  1.00 10.62     0.187 C 
BRANCH   8   9
HETATM    9  O5' GNP A 200      -1.290  23.319  17.255  1.00  9.72    -0.268 OA
BRANCH   9  10
HETATM   10  PA  GNP A 200      -0.383  23.454  18.477  1.00 10.32     0.418 P 
HETATM   11  O1A GNP A 200      -1.210  23.861  19.700  1.00  9.87    -0.624 OA
HETATM   12  O2A GNP A 200       0.858  24.256  18.144  1.00 11.09    -0.624 OA
BRANCH  10  13
HETATM   13  O3A GNP A 200       0.134  21.860  18.688  1.00  9.21    -0.185 OA
BRANCH  13  14
HETATM   14  PB  GNP A 200       1.047  21.292  19.808  1.00  8.42     0.401 P 
HETATM   15  O1B GNP A 200       0.097  20.531  20.645  1.00  8.14    -0.628 OA
HETATM   16  O2B GNP A 200       1.798  22.331  20.430  1.00  8.71    -0.628 OA
BRANCH  14  17
HETATM   17  N3B GNP A 200       2.088  20.140  18.966  1.00  9.58    -0.091 NA
BRANCH  17  18
HETATM   18  PG  GNP A 200       2.429  20.226  17.389  1.00  9.51     0.404 P 
HETATM   19  O1G GNP A 200       1.134  19.945  16.588  1.00 10.72    -0.621 OA
HETATM   20  O2G GNP A 200       3.486  19.348  17.069  1.00 10.01    -0.621 OA
HETATM   21  O3G GNP A 200       2.858  21.709  17.218  1.00 11.72    -0.621 OA
ENDBRANCH  17  18
ENDBRANCH  14  17
ENDBRANCH  13  14
ENDBRANCH  10  13
ENDBRANCH   9  10
ENDBRANCH   8   9
ENDBRANCH   1   8
BRANCH   7  22
HETATM   22  N9  GNP A 200      -4.054  23.882  13.345  1.00  9.54    -0.269 N 
HETATM   23  C4  GNP A 200      -4.062  23.973  12.039  1.00  9.54     0.187 A 
HETATM   24  N3  GNP A 200      -3.855  23.060  11.112  1.00 10.76    -0.039 NA
HETATM   25  C5  GNP A 200      -4.312  25.356  11.863  1.00  8.26     0.162 A 
HETATM   26  C2  GNP A 200      -3.918  23.373   9.919  1.00  9.86     0.772 A 
HETATM   27  N1  GNP A 200      -4.204  24.773   9.509  1.00 10.22    -0.029 NA
HETATM   28  N2  GNP A 200      -3.767  22.668   8.845  1.00 11.49     0.062 N 
HETATM   29  C6  GNP A 200      -4.376  25.665  10.480  1.00 10.19     0.251 A 
HETATM   30  O6  GNP A 200      -4.606  26.952  10.104  1.00 11.17    -0.167 OA
HETATM   31  N7  GNP A 200      -4.442  25.944  13.004  1.00  8.86    -0.219 NA
HETATM   32  C8  GNP A 200      -4.281  25.092  14.037  1.00 11.92     0.182 A 
ENDBRANCH   7  22
TORSDOF 8
ENDMDL
MODEL 7
REMARK VINA RESULT:    -5.455      2.445      4.160
REMARK INTER + INTRA:          -9.467
REMARK INTER:                  -8.779
REMARK INTRA:                  -0.688
REMARK UNBOUND:                -1.461
REMARK  8 active torsions:
REMARK  status: ('A' for Active; 'I' for Inactive)
REMARK    1  A    between atoms: PA_1  and  O5'_5 
REMARK    2  A    between atoms: PA_1  and  O3A_24 
REMARK    3  A    between atoms: PB_2  and  N3B_23 
REMARK    4  A    between atoms: PB_2  and  O3A_24 
REMARK    5  A    between atoms: PG_3  and  N3B_23 
REMARK    6  A    between atoms: C5'_4  and  O5'_5 
REMARK    7  A    between atoms: C5'_4  and  C4'_6 
REMARK    8  A    between atoms: C1'_12  and  N9_32 
ROOT
HETATM    1  C4' GNP A 200       3.737  25.031  23.493  1.00 11.60     0.181 C 
HETATM    2  O4' GNP A 200       4.983  24.829  24.233  1.00 10.96    -0.331 OA
HETATM    3  C3' GNP A 200       4.057  26.074  22.411  1.00 12.08     0.216 C 
HETATM    4  O3' GNP A 200       3.811  27.388  22.973  1.00 14.40    -0.218 OA
HETATM    5  C2' GNP A 200       5.589  25.873  22.192  1.00 12.17     0.234 C 
HETATM    6  O2' GNP A 200       6.323  27.062  21.789  1.00 13.60    -0.216 OA
HETATM    7  C1' GNP A 200       6.076  25.567  23.624  1.00 11.60     0.241 C 
ENDROOT
BRANCH   1   8
HETATM    8  C5' GNP A 200       3.208  23.761  22.963  1.00 10.62     0.187 C 
BRANCH   8   9
HETATM    9  O5' GNP A 200       2.384  23.968  21.793  1.00  9.72    -0.268 OA
BRANCH   9  10
HETATM   10  PA  GNP A 200       0.861  24.047  21.900  1.00 10.32     0.418 P 
HETATM   11  O1A GNP A 200       0.462  25.204  22.821  1.00  9.87    -0.624 OA
HETATM   12  O2A GNP A 200       0.265  22.679  22.157  1.00 11.09    -0.624 OA
BRANCH  10  13
HETATM   13  O3A GNP A 200       0.435  24.453  20.318  1.00  9.21    -0.185 OA
BRANCH  13  14
HETATM   14  PB  GNP A 200       0.352  23.518  19.080  1.00  8.42     0.401 P 
HETATM   15  O1B GNP A 200       0.968  24.334  18.016  1.00  8.14    -0.628 OA
HETATM   16  O2B GNP A 200      -0.981  23.056  18.879  1.00  8.71    -0.628 OA
BRANCH  14  17
HETATM   17  N3B GNP A 200       1.455  22.195  19.472  1.00  9.58    -0.091 NA
BRANCH  17  18
HETATM   18  PG  GNP A 200       2.008  21.137  18.385  1.00  9.51     0.404 P 
HETATM   19  O1G GNP A 200       2.883  20.089  19.117  1.00 10.72    -0.621 OA
HETATM   20  O2G GNP A 200       2.691  21.810  17.350  1.00 10.01    -0.621 OA
HETATM   21  O3G GNP A 200       0.702  20.478  17.861  1.00 11.72    -0.621 OA
ENDBRANCH  17  18
ENDBRANCH  14  17
ENDBRANCH  13  14
ENDBRANCH  10  13
ENDBRANCH   9  10
ENDBRANCH   8   9
ENDBRANCH   1   8
BRANCH   7  22
HETATM   22  N9  GNP A 200       7.322  24.734  23.776  1.00  9.54    -0.269 N 
HETATM   23  C4  GNP A 200       8.528  25.185  24.019  1.00  9.54     0.187 A 
HETATM   24  N3  GNP A 200       8.961  26.411  24.226  1.00 10.76    -0.039 NA
HETATM   25  C5  GNP A 200       9.285  23.990  23.954  1.00  8.26     0.162 A 
HETATM   26  C2  GNP A 200      10.161  26.608  24.445  1.00  9.86     0.772 A 
HETATM   27  N1  GNP A 200      11.131  25.482  24.458  1.00 10.22    -0.029 NA
HETATM   28  N2  GNP A 200      10.814  27.698  24.684  1.00 11.49     0.062 N 
HETATM   29  C6  GNP A 200      10.652  24.266  24.213  1.00 10.19     0.251 A 
HETATM   30  O6  GNP A 200      11.545  23.241  24.193  1.00 11.17    -0.167 OA
HETATM   31  N7  GNP A 200       8.520  22.979  23.711  1.00  8.86    -0.219 NA
HETATM   32  C8  GNP A 200       7.230  23.341  23.562  1.00 11.92     0.182 A 
ENDBRANCH   7  22
TORSDOF 8
ENDMDL
MODEL 8
REMARK VINA RESULT:    -5.416      4.222      6.657
REMARK INTER + INTRA:          -9.410
REMARK INTER:                  -8.213
REMARK INTRA:                  -1.196
REMARK UNBOUND:                -1.461
REMARK  8 active torsions:
REMARK  status: ('A' for Active; 'I' for Inactive)
REMARK    1  A    between atoms: PA_1  and  O5'_5 
REMARK    2  A    between atoms: PA_1  and  O3A_24 
REMARK    3  A    between atoms: PB_2  and  N3B_23 
REMARK    4  A    between atoms: PB_2  and  O3A_24 
REMARK    5  A    between atoms: PG_3  and  N3B_23 
REMARK    6  A    between atoms: C5'_4  and  O5'_5 
REMARK    7  A    between atoms: C5'_4  and  C4'_6 
REMARK    8  A    between atoms: C1'_12  and  N9_32 
ROOT
HETATM    1  C4' GNP A 200      -0.054  21.676  19.995  1.00 11.60     0.181 C 
HETATM    2  O4' GNP A 200      -0.895  22.434  20.922  1.00 10.96    -0.331 OA
HETATM    3  C3' GNP A 200       0.690  22.723  19.152  1.00 12.08     0.216 C 
HETATM    4  O3' GNP A 200      -0.129  23.025  17.994  1.00 14.40    -0.218 OA
HETATM    5  C2' GNP A 200       0.728  23.958  20.106  1.00 12.17     0.234 C 
HETATM    6  O2' GNP A 200       0.725  25.255  19.448  1.00 13.60    -0.216 OA
HETATM    7  C1' GNP A 200      -0.643  23.860  20.806  1.00 11.60     0.241 C 
ENDROOT
BRANCH   1   8
HETATM    8  C5' GNP A 200       0.835  20.741  20.709  1.00 10.62     0.187 C 
BRANCH   8   9
HETATM    9  O5' GNP A 200       2.089  20.553  20.013  1.00  9.72    -0.268 OA
BRANCH   9  10
HETATM   10  PA  GNP A 200       2.330  19.329  19.131  1.00 10.32     0.418 P 
HETATM   11  O1A GNP A 200       1.084  18.439  19.120  1.00  9.87    -0.624 OA
HETATM   12  O2A GNP A 200       3.670  18.694  19.443  1.00 11.09    -0.624 OA
BRANCH  10  13
HETATM   13  O3A GNP A 200       2.493  20.040  17.609  1.00  9.21    -0.185 OA
BRANCH  13  14
HETATM   14  PB  GNP A 200       1.987  19.501  16.243  1.00  8.42     0.401 P 
HETATM   15  O1B GNP A 200       0.586  19.966  16.210  1.00  8.14    -0.628 OA
HETATM   16  O2B GNP A 200       2.226  18.101  16.127  1.00  8.71    -0.628 OA
BRANCH  14  17
HETATM   17  N3B GNP A 200       2.906  20.426  15.053  1.00  9.58    -0.091 NA
BRANCH  17  18
HETATM   18  PG  GNP A 200       3.255  19.886  13.571  1.00  9.51     0.404 P 
HETATM   19  O1G GNP A 200       1.974  19.271  12.956  1.00 10.72    -0.621 OA
HETATM   20  O2G GNP A 200       4.340  18.986  13.621  1.00 10.01    -0.621 OA
HETATM   21  O3G GNP A 200       3.641  21.191  12.820  1.00 11.72    -0.621 OA
ENDBRANCH  17  18
ENDBRANCH  14  17
ENDBRANCH  13  14
ENDBRANCH  10  13
ENDBRANCH   9  10
ENDBRANCH   8   9
ENDBRANCH   1   8
BRANCH   7  22
HETATM   22  N9  GNP A 200      -0.768  24.454  22.185  1.00  9.54    -0.269 N 
HETATM   23  C4  GNP A 200      -1.848  24.985  22.703  1.00  9.54     0.187 A 
HETATM   24  N3  GNP A 200      -3.065  25.108  22.213  1.00 10.76    -0.039 NA
HETATM   25  C5  GNP A 200      -1.354  25.453  23.945  1.00  8.26     0.162 A 
HETATM   26  C2  GNP A 200      -3.945  25.648  22.890  1.00  9.86     0.772 A 
HETATM   27  N1  GNP A 200      -3.649  26.183  24.245  1.00 10.22    -0.029 NA
HETATM   28  N2  GNP A 200      -5.194  25.872  22.638  1.00 11.49     0.062 N 
HETATM   29  C6  GNP A 200      -2.400  26.063  24.684  1.00 10.19     0.251 A 
HETATM   30  O6  GNP A 200      -2.123  26.581  25.910  1.00 11.17    -0.167 OA
HETATM   31  N7  GNP A 200      -0.102  25.169  24.074  1.00  8.86    -0.219 NA
HETATM   32  C8  GNP A 200       0.389  24.534  22.990  1.00 11.92     0.182 A 
ENDBRANCH   7  22
TORSDOF 8
ENDMDL
MODEL 9
REMARK VINA RESULT:    -5.194      7.148      9.591
REMARK INTER + INTRA:          -9.084
REMARK INTER:                  -7.517
REMARK INTRA:                  -1.567
REMARK UNBOUND:                -1.461
REMARK  8 active torsions:
REMARK  status: ('A' for Active; 'I' for Inactive)
REMARK    1  A    between atoms: PA_1  and  O5'_5 
REMARK    2  A    between atoms: PA_1  and  O3A_24 
REMARK    3  A    between atoms: PB_2  and  N3B_23 
REMARK    4  A    between atoms: PB_2  and  O3A_24 
REMARK    5  A    between atoms: PG_3  and  N3B_23 
REMARK    6  A    between atoms: C5'_4  and  O5'_5 
REMARK    7  A    between atoms: C5'_4  and  C4'_6 
REMARK    8  A    between atoms: C1'_12  and  N9_32 
ROOT
HETATM    1  C4' GNP A 200       2.084  19.009  12.443  1.00 11.60     0.181 C 
HETATM    2  O4' GNP A 200       3.136  18.909  13.455  1.00 10.96    -0.331 OA
HETATM    3  C3' GNP A 200       2.004  17.623  11.784  1.00 12.08     0.216 C 
HETATM    4  O3' GNP A 200       2.929  17.607  10.668  1.00 14.40    -0.218 OA
HETATM    5  C2' GNP A 200       2.526  16.682  12.915  1.00 12.17     0.234 C 
HETATM    6  O2' GNP A 200       3.206  15.480  12.460  1.00 13.60    -0.216 OA
HETATM    7  C1' GNP A 200       3.628  17.546  13.562  1.00 11.60     0.241 C 
ENDROOT
BRANCH   1   8
HETATM    8  C5' GNP A 200       0.811  19.470  13.027  1.00 10.62     0.187 C 
BRANCH   8   9
HETATM    9  O5' GNP A 200       0.484  18.752  14.239  1.00  9.72    -0.268 OA
BRANCH   9  10
HETATM   10  PA  GNP A 200      -0.002  19.485  15.488  1.00 10.32     0.418 P 
HETATM   11  O1A GNP A 200      -0.540  18.477  16.509  1.00  9.87    -0.624 OA
HETATM   12  O2A GNP A 200      -0.868  20.671  15.117  1.00 11.09    -0.624 OA
BRANCH  10  13
HETATM   13  O3A GNP A 200       1.441  20.128  16.082  1.00  9.21    -0.185 OA
BRANCH  13  14
HETATM   14  PB  GNP A 200       1.810  20.449  17.556  1.00  8.42     0.401 P 
HETATM   15  O1B GNP A 200       2.979  21.339  17.412  1.00  8.14    -0.628 OA
HETATM   16  O2B GNP A 200       1.972  19.253  18.314  1.00  8.71    -0.628 OA
BRANCH  14  17
HETATM   17  N3B GNP A 200       0.448  21.414  18.135  1.00  9.58    -0.091 NA
BRANCH  17  18
HETATM   18  PG  GNP A 200       0.608  22.727  19.061  1.00  9.51     0.404 P 
HETATM   19  O1G GNP A 200       1.035  23.915  18.164  1.00 10.72    -0.621 OA
HETATM   20  O2G GNP A 200       1.508  22.473  20.118  1.00 10.01    -0.621 OA
HETATM   21  O3G GNP A 200      -0.836  22.943  19.592  1.00 11.72    -0.621 OA
ENDBRANCH  17  18
ENDBRANCH  14  17
ENDBRANCH  13  14
ENDBRANCH  10  13
ENDBRANCH   9  10
ENDBRANCH   8   9
ENDBRANCH   1   8
BRANCH   7  22
HETATM   22  N9  GNP A 200       3.952  17.296  15.012  1.00  9.54    -0.269 N 
HETATM   23  C4  GNP A 200       5.114  17.481  15.587  1.00  9.54     0.187 A 
HETATM   24  N3  GNP A 200       6.247  17.946  15.104  1.00 10.76    -0.039 NA
HETATM   25  C5  GNP A 200       4.854  16.995  16.892  1.00  8.26     0.162 A 
HETATM   26  C2  GNP A 200       7.234  18.041  15.841  1.00  9.86     0.772 A 
HETATM   27  N1  GNP A 200       7.170  17.617  17.265  1.00 10.22    -0.029 NA
HETATM   28  N2  GNP A 200       8.432  18.470  15.608  1.00 11.49     0.062 N 
HETATM   29  C6  GNP A 200       6.013  17.126  17.698  1.00 10.19     0.251 A 
HETATM   30  O6  GNP A 200       5.964  16.708  18.992  1.00 11.17    -0.167 OA
HETATM   31  N7  GNP A 200       3.630  16.599  16.995  1.00  8.86    -0.219 NA
HETATM   32  C8  GNP A 200       2.953  16.732  15.836  1.00 11.92     0.182 A 
ENDBRANCH   7  22
TORSDOF 8
ENDMDL
