MODEL 1
REMARK VINA RESULT:    -8.529      0.000      0.000
REMARK INTER + INTRA:         -13.004
REMARK INTER:                 -12.517
REMARK INTRA:                  -0.487
REMARK UNBOUND:                -0.487
REMARK  8 active torsions:
REMARK  status: ('A' for Active; 'I' for Inactive)
REMARK    1  A    between atoms: PA_1  and  O5'_5 
REMARK    2  A    between atoms: PA_1  and  O3A_24 
REMARK    3  A    between atoms: PB_2  and  N3B_23 
REMARK    4  A    between atoms: PB_2  and  O3A_24 
REMARK    5  A    between atoms: PG_3  and  N3B_23 
REMARK    6  A    between atoms: C5'_4  and  O5'_5 
REMARK    7  A    between atoms: C5'_4  and  C4'_6 
REMARK    8  A    between atoms: C1'_12  and  N9_32 
ROOT
HETATM    1  C4' GNP A 200       1.971  47.968  17.590  1.00 11.60     0.181 C 
HETATM    2  O4' GNP A 200       1.003  48.532  18.531  1.00 10.96    -0.331 OA
HETATM    3  C3' GNP A 200       2.673  49.171  16.941  1.00 12.08     0.216 C 
HETATM    4  O3' GNP A 200       1.913  49.550  15.767  1.00 14.40    -0.218 OA
HETATM    5  C2' GNP A 200       2.535  50.273  18.038  1.00 12.17     0.234 C 
HETATM    6  O2' GNP A 200       2.461  51.639  17.542  1.00 13.60    -0.216 OA
HETATM    7  C1' GNP A 200       1.133  49.977  18.609  1.00 11.60     0.241 C 
ENDROOT
BRANCH   1   8
HETATM    8  C5' GNP A 200       2.888  47.024  18.254  1.00 10.62     0.187 C 
BRANCH   8   9
HETATM    9  O5' GNP A 200       2.537  45.649  17.978  1.00  9.72    -0.268 OA
BRANCH   9  10
HETATM   10  PA  GNP A 200       3.607  44.608  17.648  1.00 10.32     0.418 P 
HETATM   11  O1A GNP A 200       3.106  43.209  18.019  1.00  9.87    -0.624 OA
HETATM   12  O2A GNP A 200       4.965  45.049  18.156  1.00 11.09    -0.624 OA
BRANCH  10  13
HETATM   13  O3A GNP A 200       3.677  44.722  15.965  1.00  9.21    -0.185 OA
BRANCH  13  14
HETATM   14  PB  GNP A 200       4.499  43.845  14.982  1.00  8.42     0.401 P 
HETATM   15  O1B GNP A 200       3.449  43.125  14.234  1.00  8.14    -0.628 OA
HETATM   16  O2B GNP A 200       5.470  43.069  15.680  1.00  8.71    -0.628 OA
BRANCH  14  17
HETATM   17  N3B GNP A 200       5.251  45.016  13.894  1.00  9.58    -0.091 NA
BRANCH  17  18
HETATM   18  PG  GNP A 200       6.010  46.350  14.397  1.00  9.51     0.404 P 
HETATM   19  O1G GNP A 200       6.488  47.143  13.157  1.00 10.72    -0.621 OA
HETATM   20  O2G GNP A 200       7.055  46.013  15.283  1.00 10.01    -0.621 OA
HETATM   21  O3G GNP A 200       4.879  47.124  15.130  1.00 11.72    -0.621 OA
ENDBRANCH  17  18
ENDBRANCH  14  17
ENDBRANCH  13  14
ENDBRANCH  10  13
ENDBRANCH   9  10
ENDBRANCH   8   9
ENDBRANCH   1   8
BRANCH   7  22
HETATM   22  N9  GNP A 200       0.860  50.378  20.035  1.00  9.54    -0.269 N 
HETATM   23  C4  GNP A 200       1.752  50.759  20.915  1.00  9.54     0.187 A 
HETATM   24  N3  GNP A 200       3.053  50.928  20.802  1.00 10.76    -0.039 NA
HETATM   25  C5  GNP A 200       0.949  50.904  22.073  1.00  8.26     0.162 A 
HETATM   26  C2  GNP A 200       3.709  51.305  21.779  1.00  9.86     0.772 A 
HETATM   27  N1  GNP A 200       3.055  51.552  23.090  1.00 10.22    -0.029 NA
HETATM   28  N2  GNP A 200       4.972  51.548  21.912  1.00 11.49     0.062 N 
HETATM   29  C6  GNP A 200       1.745  51.339  23.164  1.00 10.19     0.251 A 
HETATM   30  O6  GNP A 200       1.153  51.534  24.373  1.00 11.17    -0.167 OA
HETATM   31  N7  GNP A 200      -0.285  50.634  21.809  1.00  8.86    -0.219 NA
HETATM   32  C8  GNP A 200      -0.461  50.267  20.523  1.00 11.92     0.182 A 
ENDBRANCH   7  22
TORSDOF 8
ENDMDL
MODEL 2
REMARK VINA RESULT:    -8.496      1.189      2.543
REMARK INTER + INTRA:         -12.956
REMARK INTER:                 -12.122
REMARK INTRA:                  -0.833
REMARK UNBOUND:                -0.487
REMARK  8 active torsions:
REMARK  status: ('A' for Active; 'I' for Inactive)
REMARK    1  A    between atoms: PA_1  and  O5'_5 
REMARK    2  A    between atoms: PA_1  and  O3A_24 
REMARK    3  A    between atoms: PB_2  and  N3B_23 
REMARK    4  A    between atoms: PB_2  and  O3A_24 
REMARK    5  A    between atoms: PG_3  and  N3B_23 
REMARK    6  A    between atoms: C5'_4  and  O5'_5 
REMARK    7  A    between atoms: C5'_4  and  C4'_6 
REMARK    8  A    between atoms: C1'_12  and  N9_32 
ROOT
HETATM    1  C4' GNP A 200       1.967  47.897  17.553  1.00 11.60     0.181 C 
HETATM    2  O4' GNP A 200       0.981  48.405  18.507  1.00 10.96    -0.331 OA
HETATM    3  C3' GNP A 200       2.625  49.137  16.929  1.00 12.08     0.216 C 
HETATM    4  O3' GNP A 200       1.849  49.515  15.765  1.00 14.40    -0.218 OA
HETATM    5  C2' GNP A 200       2.448  50.210  18.050  1.00 12.17     0.234 C 
HETATM    6  O2' GNP A 200       2.325  51.583  17.585  1.00 13.60    -0.216 OA
HETATM    7  C1' GNP A 200       1.059  49.851  18.616  1.00 11.60     0.241 C 
ENDROOT
BRANCH   1   8
HETATM    8  C5' GNP A 200       2.919  46.972  18.195  1.00 10.62     0.187 C 
BRANCH   8   9
HETATM    9  O5' GNP A 200       2.577  45.590  17.945  1.00  9.72    -0.268 OA
BRANCH   9  10
HETATM   10  PA  GNP A 200       3.650  44.559  17.593  1.00 10.32     0.418 P 
HETATM   11  O1A GNP A 200       3.187  43.160  18.011  1.00  9.87    -0.624 OA
HETATM   12  O2A GNP A 200       5.019  45.031  18.037  1.00 11.09    -0.624 OA
BRANCH  10  13
HETATM   13  O3A GNP A 200       3.652  44.640  15.907  1.00  9.21    -0.185 OA
BRANCH  13  14
HETATM   14  PB  GNP A 200       4.496  43.798  14.911  1.00  8.42     0.401 P 
HETATM   15  O1B GNP A 200       3.464  43.079  14.138  1.00  8.14    -0.628 OA
HETATM   16  O2B GNP A 200       5.474  43.023  15.599  1.00  8.71    -0.628 OA
BRANCH  14  17
HETATM   17  N3B GNP A 200       5.237  45.005  13.856  1.00  9.58    -0.091 NA
BRANCH  17  18
HETATM   18  PG  GNP A 200       5.966  46.342  14.395  1.00  9.51     0.404 P 
HETATM   19  O1G GNP A 200       6.500  47.138  13.179  1.00 10.72    -0.621 OA
HETATM   20  O2G GNP A 200       6.970  46.008  15.330  1.00 10.01    -0.621 OA
HETATM   21  O3G GNP A 200       4.799  47.111  15.074  1.00 11.72    -0.621 OA
ENDBRANCH  17  18
ENDBRANCH  14  17
ENDBRANCH  13  14
ENDBRANCH  10  13
ENDBRANCH   9  10
ENDBRANCH   8   9
ENDBRANCH   1   8
BRANCH   7  22
HETATM   22  N9  GNP A 200       0.774  50.212  20.051  1.00  9.54    -0.269 N 
HETATM   23  C4  GNP A 200      -0.334  49.966  20.704  1.00  9.54     0.187 A 
HETATM   24  N3  GNP A 200      -1.430  49.339  20.331  1.00 10.76    -0.039 NA
HETATM   25  C5  GNP A 200      -0.071  50.606  21.940  1.00  8.26     0.162 A 
HETATM   26  C2  GNP A 200      -2.367  49.216  21.127  1.00  9.86     0.772 A 
HETATM   27  N1  GNP A 200      -2.286  49.786  22.497  1.00 10.22    -0.029 NA
HETATM   28  N2  GNP A 200      -3.520  48.644  21.002  1.00 11.49     0.062 N 
HETATM   29  C6  GNP A 200      -1.172  50.437  22.818  1.00 10.19     0.251 A 
HETATM   30  O6  GNP A 200      -1.112  50.985  24.061  1.00 11.17    -0.167 OA
HETATM   31  N7  GNP A 200       1.106  51.135  21.937  1.00  8.86    -0.219 NA
HETATM   32  C8  GNP A 200       1.742  50.957  20.761  1.00 11.92     0.182 A 
ENDBRANCH   7  22
TORSDOF 8
ENDMDL
MODEL 3
REMARK VINA RESULT:    -8.112      3.926      6.330
REMARK INTER + INTRA:         -12.392
REMARK INTER:                 -11.657
REMARK INTRA:                  -0.735
REMARK UNBOUND:                -0.487
REMARK  8 active torsions:
REMARK  status: ('A' for Active; 'I' for Inactive)
REMARK    1  A    between atoms: PA_1  and  O5'_5 
REMARK    2  A    between atoms: PA_1  and  O3A_24 
REMARK    3  A    between atoms: PB_2  and  N3B_23 
REMARK    4  A    between atoms: PB_2  and  O3A_24 
REMARK    5  A    between atoms: PG_3  and  N3B_23 
REMARK    6  A    between atoms: C5'_4  and  O5'_5 
REMARK    7  A    between atoms: C5'_4  and  C4'_6 
REMARK    8  A    between atoms: C1'_12  and  N9_32 
ROOT
HETATM    1  C4' GNP A 200       3.973  49.101  15.806  1.00 11.60     0.181 C 
HETATM    2  O4' GNP A 200       3.447  50.463  15.710  1.00 10.96    -0.331 OA
HETATM    3  C3' GNP A 200       2.922  48.300  16.590  1.00 12.08     0.216 C 
HETATM    4  O3' GNP A 200       3.240  48.408  18.000  1.00 14.40    -0.218 OA
HETATM    5  C2' GNP A 200       1.607  49.083  16.285  1.00 12.17     0.234 C 
HETATM    6  O2' GNP A 200       0.600  49.044  17.335  1.00 13.60    -0.216 OA
HETATM    7  C1' GNP A 200       2.105  50.542  16.261  1.00 11.60     0.241 C 
ENDROOT
BRANCH   1   8
HETATM    8  C5' GNP A 200       4.283  48.543  14.477  1.00 10.62     0.187 C 
BRANCH   8   9
HETATM    9  O5' GNP A 200       4.311  47.098  14.493  1.00  9.72    -0.268 OA
BRANCH   9  10
HETATM   10  PA  GNP A 200       5.614  46.328  14.281  1.00 10.32     0.418 P 
HETATM   11  O1A GNP A 200       6.807  47.198  14.685  1.00  9.87    -0.624 OA
HETATM   12  O2A GNP A 200       5.633  45.662  12.920  1.00 11.09    -0.624 OA
BRANCH  10  13
HETATM   13  O3A GNP A 200       5.455  45.082  15.409  1.00  9.21    -0.185 OA
BRANCH  13  14
HETATM   14  PB  GNP A 200       4.526  43.839  15.336  1.00  8.42     0.401 P 
HETATM   15  O1B GNP A 200       5.464  42.720  15.553  1.00  8.14    -0.628 OA
HETATM   16  O2B GNP A 200       3.762  43.844  14.133  1.00  8.71    -0.628 OA
BRANCH  14  17
HETATM   17  N3B GNP A 200       3.502  43.989  16.767  1.00  9.58    -0.091 NA
BRANCH  17  18
HETATM   18  PG  GNP A 200       3.963  43.545  18.250  1.00  9.51     0.404 P 
HETATM   19  O1G GNP A 200       2.810  43.851  19.237  1.00 10.72    -0.621 OA
HETATM   20  O2G GNP A 200       5.176  44.177  18.595  1.00 10.01    -0.621 OA
HETATM   21  O3G GNP A 200       4.151  42.010  18.099  1.00 11.72    -0.621 OA
ENDBRANCH  17  18
ENDBRANCH  14  17
ENDBRANCH  13  14
ENDBRANCH  10  13
ENDBRANCH   9  10
ENDBRANCH   8   9
ENDBRANCH   1   8
BRANCH   7  22
HETATM   22  N9  GNP A 200       1.333  51.532  15.427  1.00  9.54    -0.269 N 
HETATM   23  C4  GNP A 200       1.125  51.458  14.136  1.00  9.54     0.187 A 
HETATM   24  N3  GNP A 200       1.472  50.537  13.261  1.00 10.76    -0.039 NA
HETATM   25  C5  GNP A 200       0.449  52.680  13.898  1.00  8.26     0.162 A 
HETATM   26  C2  GNP A 200       1.160  50.672  12.073  1.00  9.86     0.772 A 
HETATM   27  N1  GNP A 200       0.414  51.871  11.610  1.00 10.22    -0.029 NA
HETATM   28  N2  GNP A 200       1.373  49.915  11.046  1.00 11.49     0.062 N 
HETATM   29  C6  GNP A 200       0.111  52.788  12.524  1.00 10.19     0.251 A 
HETATM   30  O6  GNP A 200      -0.543  53.899  12.094  1.00 11.17    -0.167 OA
HETATM   31  N7  GNP A 200       0.300  53.340  14.997  1.00  8.86    -0.219 NA
HETATM   32  C8  GNP A 200       0.846  52.701  16.052  1.00 11.92     0.182 A 
ENDBRANCH   7  22
TORSDOF 8
ENDMDL
MODEL 4
REMARK VINA RESULT:    -7.679      4.696      8.125
REMARK INTER + INTRA:         -11.756
REMARK INTER:                 -10.395
REMARK INTRA:                  -1.362
REMARK UNBOUND:                -0.487
REMARK  8 active torsions:
REMARK  status: ('A' for Active; 'I' for Inactive)
REMARK    1  A    between atoms: PA_1  and  O5'_5 
REMARK    2  A    between atoms: PA_1  and  O3A_24 
REMARK    3  A    between atoms: PB_2  and  N3B_23 
REMARK    4  A    between atoms: PB_2  and  O3A_24 
REMARK    5  A    between atoms: PG_3  and  N3B_23 
REMARK    6  A    between atoms: C5'_4  and  O5'_5 
REMARK    7  A    between atoms: C5'_4  and  C4'_6 
REMARK    8  A    between atoms: C1'_12  and  N9_32 
ROOT
HETATM    1  C4' GNP A 200       1.151  50.283  16.922  1.00 11.60     0.181 C 
HETATM    2  O4' GNP A 200       1.599  49.256  15.981  1.00 10.96    -0.331 OA
HETATM    3  C3' GNP A 200       1.701  49.862  18.294  1.00 12.08     0.216 C 
HETATM    4  O3' GNP A 200       0.716  49.005  18.924  1.00 14.40    -0.218 OA
HETATM    5  C2' GNP A 200       2.959  49.023  17.908  1.00 12.17     0.234 C 
HETATM    6  O2' GNP A 200       3.305  47.957  18.836  1.00 13.60    -0.216 OA
HETATM    7  C1' GNP A 200       2.481  48.303  16.631  1.00 11.60     0.241 C 
ENDROOT
BRANCH   1   8
HETATM    8  C5' GNP A 200       1.571  51.631  16.496  1.00 10.62     0.187 C 
BRANCH   8   9
HETATM    9  O5' GNP A 200       1.955  51.658  15.102  1.00  9.72    -0.268 OA
BRANCH   9  10
HETATM   10  PA  GNP A 200       1.005  52.186  14.028  1.00 10.32     0.418 P 
HETATM   11  O1A GNP A 200       1.359  53.636  13.685  1.00  9.87    -0.624 OA
HETATM   12  O2A GNP A 200      -0.433  51.853  14.367  1.00 11.09    -0.624 OA
BRANCH  10  13
HETATM   13  O3A GNP A 200       1.413  51.211  12.711  1.00  9.21    -0.185 OA
BRANCH  13  14
HETATM   14  PB  GNP A 200       0.973  51.371  11.231  1.00  8.42     0.401 P 
HETATM   15  O1B GNP A 200       1.869  52.437  10.740  1.00  8.14    -0.628 OA
HETATM   16  O2B GNP A 200      -0.433  51.586  11.137  1.00  8.71    -0.628 OA
BRANCH  14  17
HETATM   17  N3B GNP A 200       1.457  49.849  10.476  1.00  9.58    -0.091 NA
BRANCH  17  18
HETATM   18  PG  GNP A 200       0.965  49.377   9.012  1.00  9.51     0.404 P 
HETATM   19  O1G GNP A 200       2.063  48.484   8.386  1.00 10.72    -0.621 OA
HETATM   20  O2G GNP A 200       0.637  50.499   8.221  1.00 10.01    -0.621 OA
HETATM   21  O3G GNP A 200      -0.297  48.532   9.338  1.00 11.72    -0.621 OA
ENDBRANCH  17  18
ENDBRANCH  14  17
ENDBRANCH  13  14
ENDBRANCH  10  13
ENDBRANCH   9  10
ENDBRANCH   8   9
ENDBRANCH   1   8
BRANCH   7  22
HETATM   22  N9  GNP A 200       3.526  47.895  15.625  1.00  9.54    -0.269 N 
HETATM   23  C4  GNP A 200       4.072  46.710  15.515  1.00  9.54     0.187 A 
HETATM   24  N3  GNP A 200       3.851  45.597  16.183  1.00 10.76    -0.039 NA
HETATM   25  C5  GNP A 200       5.028  46.943  14.496  1.00  8.26     0.162 A 
HETATM   26  C2  GNP A 200       4.491  44.578  15.903  1.00  9.86     0.772 A 
HETATM   27  N1  GNP A 200       5.525  44.592  14.836  1.00 10.22    -0.029 NA
HETATM   28  N2  GNP A 200       4.448  43.383  16.399  1.00 11.49     0.062 N 
HETATM   29  C6  GNP A 200       5.734  45.746  14.210  1.00 10.19     0.251 A 
HETATM   30  O6  GNP A 200       6.702  45.767  13.255  1.00 11.17    -0.167 OA
HETATM   31  N7  GNP A 200       4.970  48.166  14.088  1.00  8.86    -0.219 NA
HETATM   32  C8  GNP A 200       4.044  48.882  14.757  1.00 11.92     0.182 A 
ENDBRANCH   7  22
TORSDOF 8
ENDMDL
MODEL 5
REMARK VINA RESULT:    -7.596      4.120      6.078
REMARK INTER + INTRA:         -11.635
REMARK INTER:                 -10.616
REMARK INTRA:                  -1.019
REMARK UNBOUND:                -0.487
REMARK  8 active torsions:
REMARK  status: ('A' for Active; 'I' for Inactive)
REMARK    1  A    between atoms: PA_1  and  O5'_5 
REMARK    2  A    between atoms: PA_1  and  O3A_24 
REMARK    3  A    between atoms: PB_2  and  N3B_23 
REMARK    4  A    between atoms: PB_2  and  O3A_24 
REMARK    5  A    between atoms: PG_3  and  N3B_23 
REMARK    6  A    between atoms: C5'_4  and  O5'_5 
REMARK    7  A    between atoms: C5'_4  and  C4'_6 
REMARK    8  A    between atoms: C1'_12  and  N9_32 
ROOT
HETATM    1  C4' GNP A 200       3.997  49.169  15.462  1.00 11.60     0.181 C 
HETATM    2  O4' GNP A 200       3.403  50.432  15.022  1.00 10.96    -0.331 OA
HETATM    3  C3' GNP A 200       2.966  48.526  16.402  1.00 12.08     0.216 C 
HETATM    4  O3' GNP A 200       3.234  48.999  17.746  1.00 14.40    -0.218 OA
HETATM    5  C2' GNP A 200       1.621  49.131  15.890  1.00 12.17     0.234 C 
HETATM    6  O2' GNP A 200       0.586  49.294  16.899  1.00 13.60    -0.216 OA
HETATM    7  C1' GNP A 200       2.042  50.566  15.512  1.00 11.60     0.241 C 
ENDROOT
BRANCH   1   8
HETATM    8  C5' GNP A 200       4.377  48.320  14.318  1.00 10.62     0.187 C 
BRANCH   8   9
HETATM    9  O5' GNP A 200       4.617  46.952  14.721  1.00  9.72    -0.268 OA
BRANCH   9  10
HETATM   10  PA  GNP A 200       5.831  46.176  14.213  1.00 10.32     0.418 P 
HETATM   11  O1A GNP A 200       7.118  46.918  14.588  1.00  9.87    -0.624 OA
HETATM   12  O2A GNP A 200       5.636  45.749  12.772  1.00 11.09    -0.624 OA
BRANCH  10  13
HETATM   13  O3A GNP A 200       5.739  44.766  15.136  1.00  9.21    -0.185 OA
BRANCH  13  14
HETATM   14  PB  GNP A 200       4.480  43.920  15.465  1.00  8.42     0.401 P 
HETATM   15  O1B GNP A 200       5.055  42.712  16.091  1.00  8.14    -0.628 OA
HETATM   16  O2B GNP A 200       3.664  43.747  14.309  1.00  8.71    -0.628 OA
BRANCH  14  17
HETATM   17  N3B GNP A 200       3.656  44.854  16.718  1.00  9.58    -0.091 NA
BRANCH  17  18
HETATM   18  PG  GNP A 200       3.958  44.700  18.297  1.00  9.51     0.404 P 
HETATM   19  O1G GNP A 200       3.360  45.922  19.036  1.00 10.72    -0.621 OA
HETATM   20  O2G GNP A 200       5.342  44.536  18.516  1.00 10.01    -0.621 OA
HETATM   21  O3G GNP A 200       3.174  43.410  18.665  1.00 11.72    -0.621 OA
ENDBRANCH  17  18
ENDBRANCH  14  17
ENDBRANCH  13  14
ENDBRANCH  10  13
ENDBRANCH   9  10
ENDBRANCH   8   9
ENDBRANCH   1   8
BRANCH   7  22
HETATM   22  N9  GNP A 200       1.246  51.272  14.446  1.00  9.54    -0.269 N 
HETATM   23  C4  GNP A 200       0.611  52.409  14.581  1.00  9.54     0.187 A 
HETATM   24  N3  GNP A 200       0.525  53.229  15.608  1.00 10.76    -0.039 NA
HETATM   25  C5  GNP A 200      -0.023  52.520  13.319  1.00  8.26     0.162 A 
HETATM   26  C2  GNP A 200      -0.137  54.267  15.509  1.00  9.86     0.772 A 
HETATM   27  N1  GNP A 200      -0.859  54.598  14.253  1.00 10.22    -0.029 NA
HETATM   28  N2  GNP A 200      -0.359  55.218  16.358  1.00 11.49     0.062 N 
HETATM   29  C6  GNP A 200      -0.767  53.726  13.254  1.00 10.19     0.251 A 
HETATM   30  O6  GNP A 200      -1.454  54.014  12.116  1.00 11.17    -0.167 OA
HETATM   31  N7  GNP A 200       0.277  51.514  12.568  1.00  8.86    -0.219 NA
HETATM   32  C8  GNP A 200       1.082  50.633  13.197  1.00 11.92     0.182 A 
ENDBRANCH   7  22
TORSDOF 8
ENDMDL
MODEL 6
REMARK VINA RESULT:    -7.462      5.216      7.592
REMARK INTER + INTRA:         -11.438
REMARK INTER:                 -11.173
REMARK INTRA:                  -0.266
REMARK UNBOUND:                -0.487
REMARK  8 active torsions:
REMARK  status: ('A' for Active; 'I' for Inactive)
REMARK    1  A    between atoms: PA_1  and  O5'_5 
REMARK    2  A    between atoms: PA_1  and  O3A_24 
REMARK    3  A    between atoms: PB_2  and  N3B_23 
REMARK    4  A    between atoms: PB_2  and  O3A_24 
REMARK    5  A    between atoms: PG_3  and  N3B_23 
REMARK    6  A    between atoms: C5'_4  and  O5'_5 
REMARK    7  A    between atoms: C5'_4  and  C4'_6 
REMARK    8  A    between atoms: C1'_12  and  N9_32 
ROOT
HETATM    1  C4' GNP A 200      -0.993  49.340  17.893  1.00 11.60     0.181 C 
HETATM    2  O4' GNP A 200      -1.898  49.598  16.772  1.00 10.96    -0.331 OA
HETATM    3  C3' GNP A 200      -1.580  48.130  18.636  1.00 12.08     0.216 C 
HETATM    4  O3' GNP A 200      -2.506  48.627  19.635  1.00 14.40    -0.218 OA
HETATM    5  C2' GNP A 200      -2.369  47.393  17.507  1.00 12.17     0.234 C 
HETATM    6  O2' GNP A 200      -3.541  46.653  17.948  1.00 13.60    -0.216 OA
HETATM    7  C1' GNP A 200      -2.926  48.575  16.687  1.00 11.60     0.241 C 
ENDROOT
BRANCH   1   8
HETATM    8  C5' GNP A 200       0.396  49.147  17.437  1.00 10.62     0.187 C 
BRANCH   8   9
HETATM    9  O5' GNP A 200       0.957  47.910  17.933  1.00  9.72    -0.268 OA
BRANCH   9  10
HETATM   10  PA  GNP A 200       2.425  47.555  17.698  1.00 10.32     0.418 P 
HETATM   11  O1A GNP A 200       3.247  47.878  18.950  1.00  9.87    -0.624 OA
HETATM   12  O2A GNP A 200       2.903  48.086  16.362  1.00 11.09    -0.624 OA
BRANCH  10  13
HETATM   13  O3A GNP A 200       2.342  45.877  17.532  1.00  9.21    -0.185 OA
BRANCH  13  14
HETATM   14  PB  GNP A 200       3.426  44.826  17.895  1.00  8.42     0.401 P 
HETATM   15  O1B GNP A 200       2.880  44.207  19.119  1.00  8.14    -0.628 OA
HETATM   16  O2B GNP A 200       4.715  45.428  17.970  1.00  8.71    -0.628 OA
BRANCH  14  17
HETATM   17  N3B GNP A 200       3.327  43.644  16.586  1.00  9.58    -0.091 NA
BRANCH  17  18
HETATM   18  PG  GNP A 200       4.293  43.656  15.291  1.00  9.51     0.404 P 
HETATM   19  O1G GNP A 200       3.521  43.053  14.093  1.00 10.72    -0.621 OA
HETATM   20  O2G GNP A 200       5.500  42.982  15.575  1.00 10.01    -0.621 OA
HETATM   21  O3G GNP A 200       4.537  45.174  15.067  1.00 11.72    -0.621 OA
ENDBRANCH  17  18
ENDBRANCH  14  17
ENDBRANCH  13  14
ENDBRANCH  10  13
ENDBRANCH   9  10
ENDBRANCH   8   9
ENDBRANCH   1   8
BRANCH   7  22
HETATM   22  N9  GNP A 200      -3.209  48.340  15.226  1.00  9.54    -0.269 N 
HETATM   23  C4  GNP A 200      -3.948  47.381  14.727  1.00  9.54     0.187 A 
HETATM   24  N3  GNP A 200      -4.643  46.433  15.321  1.00 10.76    -0.039 NA
HETATM   25  C5  GNP A 200      -3.771  47.595  13.338  1.00  8.26     0.162 A 
HETATM   26  C2  GNP A 200      -5.282  45.624  14.641  1.00  9.86     0.772 A 
HETATM   27  N1  GNP A 200      -5.263  45.689  13.156  1.00 10.22    -0.029 NA
HETATM   28  N2  GNP A 200      -6.035  44.630  14.986  1.00 11.49     0.062 N 
HETATM   29  C6  GNP A 200      -4.524  46.644  12.601  1.00 10.19     0.251 A 
HETATM   30  O6  GNP A 200      -4.481  46.684  11.242  1.00 11.17    -0.167 OA
HETATM   31  N7  GNP A 200      -3.004  48.610  13.127  1.00  8.86    -0.219 NA
HETATM   32  C8  GNP A 200      -2.567  49.165  14.276  1.00 11.92     0.182 A 
ENDBRANCH   7  22
TORSDOF 8
ENDMDL
MODEL 7
REMARK VINA RESULT:    -7.325      4.715      8.464
REMARK INTER + INTRA:         -11.237
REMARK INTER:                 -10.758
REMARK INTRA:                  -0.478
REMARK UNBOUND:                -0.487
REMARK  8 active torsions:
REMARK  status: ('A' for Active; 'I' for Inactive)
REMARK    1  A    between atoms: PA_1  and  O5'_5 
REMARK    2  A    between atoms: PA_1  and  O3A_24 
REMARK    3  A    between atoms: PB_2  and  N3B_23 
REMARK    4  A    between atoms: PB_2  and  O3A_24 
REMARK    5  A    between atoms: PG_3  and  N3B_23 
REMARK    6  A    between atoms: C5'_4  and  O5'_5 
REMARK    7  A    between atoms: C5'_4  and  C4'_6 
REMARK    8  A    between atoms: C1'_12  and  N9_32 
ROOT
HETATM    1  C4' GNP A 200       1.739  48.905  17.961  1.00 11.60     0.181 C 
HETATM    2  O4' GNP A 200       2.943  48.092  17.786  1.00 10.96    -0.331 OA
HETATM    3  C3' GNP A 200       1.700  49.860  16.757  1.00 12.08     0.216 C 
HETATM    4  O3' GNP A 200       2.433  51.058  17.117  1.00 14.40    -0.218 OA
HETATM    5  C2' GNP A 200       2.491  49.064  15.672  1.00 12.17     0.234 C 
HETATM    6  O2' GNP A 200       3.212  49.878  14.705  1.00 13.60    -0.216 OA
HETATM    7  C1' GNP A 200       3.585  48.379  16.515  1.00 11.60     0.241 C 
ENDROOT
BRANCH   1   8
HETATM    8  C5' GNP A 200       0.533  48.068  18.101  1.00 10.62     0.187 C 
BRANCH   8   9
HETATM    9  O5' GNP A 200      -0.473  48.707  18.919  1.00  9.72    -0.268 OA
BRANCH   9  10
HETATM   10  PA  GNP A 200      -1.871  48.998  18.374  1.00 10.32     0.418 P 
HETATM   11  O1A GNP A 200      -1.826  49.093  16.846  1.00  9.87    -0.624 OA
HETATM   12  O2A GNP A 200      -2.531  50.120  19.149  1.00 11.09    -0.624 OA
BRANCH  10  13
HETATM   13  O3A GNP A 200      -2.696  47.588  18.797  1.00  9.21    -0.185 OA
BRANCH  13  14
HETATM   14  PB  GNP A 200      -3.665  46.748  17.921  1.00  8.42     0.401 P 
HETATM   15  O1B GNP A 200      -2.744  45.868  17.173  1.00  8.14    -0.628 OA
HETATM   16  O2B GNP A 200      -4.537  47.590  17.172  1.00  8.71    -0.628 OA
BRANCH  14  17
HETATM   17  N3B GNP A 200      -4.547  45.760  19.089  1.00  9.58    -0.091 NA
BRANCH  17  18
HETATM   18  PG  GNP A 200      -5.498  44.520  18.679  1.00  9.51     0.404 P 
HETATM   19  O1G GNP A 200      -5.711  44.548  17.146  1.00 10.72    -0.621 OA
HETATM   20  O2G GNP A 200      -6.703  44.565  19.412  1.00 10.01    -0.621 OA
HETATM   21  O3G GNP A 200      -4.640  43.290  19.083  1.00 11.72    -0.621 OA
ENDBRANCH  17  18
ENDBRANCH  14  17
ENDBRANCH  13  14
ENDBRANCH  10  13
ENDBRANCH   9  10
ENDBRANCH   8   9
ENDBRANCH   1   8
BRANCH   7  22
HETATM   22  N9  GNP A 200       4.159  47.086  15.998  1.00  9.54    -0.269 N 
HETATM   23  C4  GNP A 200       3.938  45.891  16.487  1.00  9.54     0.187 A 
HETATM   24  N3  GNP A 200       3.169  45.499  17.481  1.00 10.76    -0.039 NA
HETATM   25  C5  GNP A 200       4.798  45.103  15.684  1.00  8.26     0.162 A 
HETATM   26  C2  GNP A 200       3.107  44.300  17.772  1.00  9.86     0.772 A 
HETATM   27  N1  GNP A 200       3.906  43.291  17.029  1.00 10.22    -0.029 NA
HETATM   28  N2  GNP A 200       2.429  43.679  18.682  1.00 11.49     0.062 N 
HETATM   29  C6  GNP A 200       4.691  43.738  16.054  1.00 10.19     0.251 A 
HETATM   30  O6  GNP A 200       5.446  42.818  15.396  1.00 11.17    -0.167 OA
HETATM   31  N7  GNP A 200       5.414  45.837  14.820  1.00  8.86    -0.219 NA
HETATM   32  C8  GNP A 200       5.091  47.141  14.938  1.00 11.92     0.182 A 
ENDBRANCH   7  22
TORSDOF 8
ENDMDL
MODEL 8
REMARK VINA RESULT:    -7.229      4.719      7.798
REMARK INTER + INTRA:         -11.097
REMARK INTER:                 -10.523
REMARK INTRA:                  -0.574
REMARK UNBOUND:                -0.487
REMARK  8 active torsions:
REMARK  status: ('A' for Active; 'I' for Inactive)
REMARK    1  A    between atoms: PA_1  and  O5'_5 
REMARK    2  A    between atoms: PA_1  and  O3A_24 
REMARK    3  A    between atoms: PB_2  and  N3B_23 
REMARK    4  A    between atoms: PB_2  and  O3A_24 
REMARK    5  A    between atoms: PG_3  and  N3B_23 
REMARK    6  A    between atoms: C5'_4  and  O5'_5 
REMARK    7  A    between atoms: C5'_4  and  C4'_6 
REMARK    8  A    between atoms: C1'_12  and  N9_32 
ROOT
HETATM    1  C4' GNP A 200       1.223  49.212  18.171  1.00 11.60     0.181 C 
HETATM    2  O4' GNP A 200       2.272  48.193  18.196  1.00 10.96    -0.331 OA
HETATM    3  C3' GNP A 200       1.697  50.277  17.170  1.00 12.08     0.216 C 
HETATM    4  O3' GNP A 200       2.482  51.255  17.899  1.00 14.40    -0.218 OA
HETATM    5  C2' GNP A 200       2.627  49.457  16.222  1.00 12.17     0.234 C 
HETATM    6  O2' GNP A 200       3.724  50.204  15.626  1.00 13.60    -0.216 OA
HETATM    7  C1' GNP A 200       3.297  48.476  17.206  1.00 11.60     0.241 C 
ENDROOT
BRANCH   1   8
HETATM    8  C5' GNP A 200      -0.092  48.630  17.848  1.00 10.62     0.187 C 
BRANCH   8   9
HETATM    9  O5' GNP A 200      -0.968  48.608  18.999  1.00  9.72    -0.268 OA
BRANCH   9  10
HETATM   10  PA  GNP A 200      -2.485  48.522  18.840  1.00 10.32     0.418 P 
HETATM   11  O1A GNP A 200      -3.046  49.889  18.436  1.00  9.87    -0.624 OA
HETATM   12  O2A GNP A 200      -3.113  47.801  20.015  1.00 11.09    -0.624 OA
BRANCH  10  13
HETATM   13  O3A GNP A 200      -2.625  47.477  17.521  1.00  9.21    -0.185 OA
BRANCH  13  14
HETATM   14  PB  GNP A 200      -3.726  47.462  16.426  1.00  8.42     0.401 P 
HETATM   15  O1B GNP A 200      -3.282  48.527  15.505  1.00  8.14    -0.628 OA
HETATM   16  O2B GNP A 200      -5.023  47.581  17.005  1.00  8.71    -0.628 OA
BRANCH  14  17
HETATM   17  N3B GNP A 200      -3.505  45.906  15.621  1.00  9.58    -0.091 NA
BRANCH  17  18
HETATM   18  PG  GNP A 200      -4.165  45.531  14.196  1.00  9.51     0.404 P 
HETATM   19  O1G GNP A 200      -5.345  46.497  13.929  1.00 10.72    -0.621 OA
HETATM   20  O2G GNP A 200      -4.540  44.171  14.173  1.00 10.01    -0.621 OA
HETATM   21  O3G GNP A 200      -3.003  45.811  13.203  1.00 11.72    -0.621 OA
ENDBRANCH  17  18
ENDBRANCH  14  17
ENDBRANCH  13  14
ENDBRANCH  10  13
ENDBRANCH   9  10
ENDBRANCH   8   9
ENDBRANCH   1   8
BRANCH   7  22
HETATM   22  N9  GNP A 200       3.774  47.155  16.660  1.00  9.54    -0.269 N 
HETATM   23  C4  GNP A 200       3.926  46.047  17.342  1.00  9.54     0.187 A 
HETATM   24  N3  GNP A 200       3.682  45.776  18.607  1.00 10.76    -0.039 NA
HETATM   25  C5  GNP A 200       4.480  45.194  16.357  1.00  8.26     0.162 A 
HETATM   26  C2  GNP A 200       3.899  44.641  19.043  1.00  9.86     0.772 A 
HETATM   27  N1  GNP A 200       4.451  43.576  18.166  1.00 10.22    -0.029 NA
HETATM   28  N2  GNP A 200       3.734  44.137  20.224  1.00 11.49     0.062 N 
HETATM   29  C6  GNP A 200       4.709  43.905  16.904  1.00 10.19     0.251 A 
HETATM   30  O6  GNP A 200       5.245  42.940  16.109  1.00 11.17    -0.167 OA
HETATM   31  N7  GNP A 200       4.594  45.812  15.230  1.00  8.86    -0.219 NA
HETATM   32  C8  GNP A 200       4.181  47.094  15.309  1.00 11.92     0.182 A 
ENDBRANCH   7  22
TORSDOF 8
ENDMDL
MODEL 9
REMARK VINA RESULT:    -7.181      4.978      7.714
REMARK INTER + INTRA:         -11.027
REMARK INTER:                 -10.183
REMARK INTRA:                  -0.843
REMARK UNBOUND:                -0.487
REMARK  8 active torsions:
REMARK  status: ('A' for Active; 'I' for Inactive)
REMARK    1  A    between atoms: PA_1  and  O5'_5 
REMARK    2  A    between atoms: PA_1  and  O3A_24 
REMARK    3  A    between atoms: PB_2  and  N3B_23 
REMARK    4  A    between atoms: PB_2  and  O3A_24 
REMARK    5  A    between atoms: PG_3  and  N3B_23 
REMARK    6  A    between atoms: C5'_4  and  O5'_5 
REMARK    7  A    between atoms: C5'_4  and  C4'_6 
REMARK    8  A    between atoms: C1'_12  and  N9_32 
ROOT
HETATM    1  C4' GNP A 200       0.064  49.149  18.791  1.00 11.60     0.181 C 
HETATM    2  O4' GNP A 200       1.211  48.266  18.575  1.00 10.96    -0.331 OA
HETATM    3  C3' GNP A 200       0.573  50.573  18.518  1.00 12.08     0.216 C 
HETATM    4  O3' GNP A 200       1.085  51.108  19.764  1.00 14.40    -0.218 OA
HETATM    5  C2' GNP A 200       1.754  50.323  17.527  1.00 12.17     0.234 C 
HETATM    6  O2' GNP A 200       2.838  51.291  17.594  1.00 13.60    -0.216 OA
HETATM    7  C1' GNP A 200       2.353  49.011  18.073  1.00 11.60     0.241 C 
ENDROOT
BRANCH   1   8
HETATM    8  C5' GNP A 200      -1.089  48.755  17.960  1.00 10.62     0.187 C 
BRANCH   8   9
HETATM    9  O5' GNP A 200      -1.995  47.885  18.675  1.00  9.72    -0.268 OA
BRANCH   9  10
HETATM   10  PA  GNP A 200      -3.379  47.551  18.119  1.00 10.32     0.418 P 
HETATM   11  O1A GNP A 200      -4.386  48.622  18.548  1.00  9.87    -0.624 OA
HETATM   12  O2A GNP A 200      -3.723  46.096  18.362  1.00 11.09    -0.624 OA
BRANCH  10  13
HETATM   13  O3A GNP A 200      -3.117  47.699  16.458  1.00  9.21    -0.185 OA
BRANCH  13  14
HETATM   14  PB  GNP A 200      -4.094  47.351  15.302  1.00  8.42     0.401 P 
HETATM   15  O1B GNP A 200      -3.501  48.063  14.152  1.00  8.14    -0.628 OA
HETATM   16  O2B GNP A 200      -5.438  47.663  15.658  1.00  8.71    -0.628 OA
BRANCH  14  17
HETATM   17  N3B GNP A 200      -3.863  45.617  15.058  1.00  9.58    -0.091 NA
BRANCH  17  18
HETATM   18  PG  GNP A 200      -4.393  44.815  13.760  1.00  9.51     0.404 P 
HETATM   19  O1G GNP A 200      -5.487  45.664  13.068  1.00 10.72    -0.621 OA
HETATM   20  O2G GNP A 200      -4.835  43.526  14.127  1.00 10.01    -0.621 OA
HETATM   21  O3G GNP A 200      -3.123  44.741  12.868  1.00 11.72    -0.621 OA
ENDBRANCH  17  18
ENDBRANCH  14  17
ENDBRANCH  13  14
ENDBRANCH  10  13
ENDBRANCH   9  10
ENDBRANCH   8   9
ENDBRANCH   1   8
BRANCH   7  22
HETATM   22  N9  GNP A 200       3.082  48.118  17.102  1.00  9.54    -0.269 N 
HETATM   23  C4  GNP A 200       3.649  46.971  17.383  1.00  9.54     0.187 A 
HETATM   24  N3  GNP A 200       3.707  46.295  18.512  1.00 10.76    -0.039 NA
HETATM   25  C5  GNP A 200       4.247  46.650  16.140  1.00  8.26     0.162 A 
HETATM   26  C2  GNP A 200       4.302  45.213  18.547  1.00  9.86     0.772 A 
HETATM   27  N1  GNP A 200       4.975  44.670  17.339  1.00 10.22    -0.029 NA
HETATM   28  N2  GNP A 200       4.484  44.374  19.515  1.00 11.49     0.062 N 
HETATM   29  C6  GNP A 200       4.915  45.402  16.231  1.00 10.19     0.251 A 
HETATM   30  O6  GNP A 200       5.559  44.920  15.134  1.00 11.17    -0.167 OA
HETATM   31  N7  GNP A 200       3.993  47.562  15.263  1.00  8.86    -0.219 NA
HETATM   32  C8  GNP A 200       3.257  48.570  15.776  1.00 11.92     0.182 A 
ENDBRANCH   7  22
TORSDOF 8
ENDMDL
