MODEL 1
REMARK VINA RESULT:    -6.371      0.000      0.000
REMARK INTER + INTRA:         -10.244
REMARK INTER:                  -9.351
REMARK INTRA:                  -0.893
REMARK UNBOUND:                -0.893
REMARK  8 active torsions:
REMARK  status: ('A' for Active; 'I' for Inactive)
REMARK    1  A    between atoms: PA_1  and  O5'_5 
REMARK    2  A    between atoms: PA_1  and  O3A_24 
REMARK    3  A    between atoms: PB_2  and  N3B_23 
REMARK    4  A    between atoms: PB_2  and  O3A_24 
REMARK    5  A    between atoms: PG_3  and  N3B_23 
REMARK    6  A    between atoms: C5'_4  and  O5'_5 
REMARK    7  A    between atoms: C5'_4  and  C4'_6 
REMARK    8  A    between atoms: C1'_12  and  N9_32 
ROOT
HETATM    1  C4' GNP A 200      -0.874  21.816  19.629  1.00 11.60     0.181 C 
HETATM    2  O4' GNP A 200      -0.248  22.064  20.928  1.00 10.96    -0.331 OA
HETATM    3  C3' GNP A 200      -0.717  23.120  18.832  1.00 12.08     0.216 C 
HETATM    4  O3' GNP A 200      -1.871  23.952  19.110  1.00 14.40    -0.218 OA
HETATM    5  C2' GNP A 200       0.557  23.754  19.473  1.00 12.17     0.234 C 
HETATM    6  O2' GNP A 200       0.602  25.208  19.462  1.00 13.60    -0.216 OA
HETATM    7  C1' GNP A 200       0.391  23.369  20.957  1.00 11.60     0.241 C 
ENDROOT
BRANCH   1   8
HETATM    8  C5' GNP A 200      -0.295  20.634  18.965  1.00 10.62     0.187 C 
BRANCH   8   9
HETATM    9  O5' GNP A 200       1.143  20.588  19.106  1.00  9.72    -0.268 OA
BRANCH   9  10
HETATM   10  PA  GNP A 200       2.056  20.469  17.886  1.00 10.32     0.418 P 
HETATM   11  O1A GNP A 200       3.089  19.361  18.113  1.00  9.87    -0.624 OA
HETATM   12  O2A GNP A 200       2.544  21.832  17.440  1.00 11.09    -0.624 OA
BRANCH  10  13
HETATM   13  O3A GNP A 200       0.969  19.951  16.703  1.00  9.21    -0.185 OA
BRANCH  13  14
HETATM   14  PB  GNP A 200       1.290  19.306  15.327  1.00  8.42     0.401 P 
HETATM   15  O1B GNP A 200       0.091  19.632  14.529  1.00  8.14    -0.628 OA
HETATM   16  O2B GNP A 200       1.637  17.932  15.476  1.00  8.71    -0.628 OA
BRANCH  14  17
HETATM   17  N3B GNP A 200       2.641  20.264  14.712  1.00  9.58    -0.091 NA
BRANCH  17  18
HETATM   18  PG  GNP A 200       3.497  19.869  13.401  1.00  9.51     0.404 P 
HETATM   19  O1G GNP A 200       2.599  19.030  12.459  1.00 10.72    -0.621 OA
HETATM   20  O2G GNP A 200       4.687  19.209  13.774  1.00 10.01    -0.621 OA
HETATM   21  O3G GNP A 200       3.798  21.255  12.766  1.00 11.72    -0.621 OA
ENDBRANCH  17  18
ENDBRANCH  14  17
ENDBRANCH  13  14
ENDBRANCH  10  13
ENDBRANCH   9  10
ENDBRANCH   8   9
ENDBRANCH   1   8
BRANCH   7  22
HETATM   22  N9  GNP A 200       1.639  23.242  21.791  1.00  9.54    -0.269 N 
HETATM   23  C4  GNP A 200       2.468  24.210  22.095  1.00  9.54     0.187 A 
HETATM   24  N3  GNP A 200       2.428  25.495  21.810  1.00 10.76    -0.039 NA
HETATM   25  C5  GNP A 200       3.477  23.499  22.789  1.00  8.26     0.162 A 
HETATM   26  C2  GNP A 200       3.330  26.238  22.210  1.00  9.86     0.772 A 
HETATM   27  N1  GNP A 200       4.475  25.701  22.992  1.00 10.22    -0.029 NA
HETATM   28  N2  GNP A 200       3.507  27.513  22.071  1.00 11.49     0.062 N 
HETATM   29  C6  GNP A 200       4.486  24.393  23.228  1.00 10.19     0.251 A 
HETATM   30  O6  GNP A 200       5.550  23.897  23.915  1.00 11.17    -0.167 OA
HETATM   31  N7  GNP A 200       3.184  22.244  22.858  1.00  8.86    -0.219 NA
HETATM   32  C8  GNP A 200       2.023  21.957  22.234  1.00 11.92     0.182 A 
ENDBRANCH   7  22
TORSDOF 8
ENDMDL
MODEL 2
REMARK VINA RESULT:    -6.105      7.968     12.110
REMARK INTER + INTRA:          -9.853
REMARK INTER:                  -8.822
REMARK INTRA:                  -1.032
REMARK UNBOUND:                -0.893
REMARK  8 active torsions:
REMARK  status: ('A' for Active; 'I' for Inactive)
REMARK    1  A    between atoms: PA_1  and  O5'_5 
REMARK    2  A    between atoms: PA_1  and  O3A_24 
REMARK    3  A    between atoms: PB_2  and  N3B_23 
REMARK    4  A    between atoms: PB_2  and  O3A_24 
REMARK    5  A    between atoms: PG_3  and  N3B_23 
REMARK    6  A    between atoms: C5'_4  and  O5'_5 
REMARK    7  A    between atoms: C5'_4  and  C4'_6 
REMARK    8  A    between atoms: C1'_12  and  N9_32 
ROOT
HETATM    1  C4' GNP A 200      -3.329  24.019  12.966  1.00 11.60     0.181 C 
HETATM    2  O4' GNP A 200      -3.175  23.211  11.756  1.00 10.96    -0.331 OA
HETATM    3  C3' GNP A 200      -3.721  25.424  12.485  1.00 12.08     0.216 C 
HETATM    4  O3' GNP A 200      -2.500  26.175  12.265  1.00 14.40    -0.218 OA
HETATM    5  C2' GNP A 200      -4.411  25.130  11.116  1.00 12.17     0.234 C 
HETATM    6  O2' GNP A 200      -4.290  26.182  10.118  1.00 13.60    -0.216 OA
HETATM    7  C1' GNP A 200      -3.558  23.964  10.575  1.00 11.60     0.241 C 
ENDROOT
BRANCH   1   8
HETATM    8  C5' GNP A 200      -4.295  23.416  13.903  1.00 10.62     0.187 C 
BRANCH   8   9
HETATM    9  O5' GNP A 200      -5.122  24.416  14.540  1.00  9.72    -0.268 OA
BRANCH   9  10
HETATM   10  PA  GNP A 200      -4.878  24.843  15.987  1.00 10.32     0.418 P 
HETATM   11  O1A GNP A 200      -6.004  24.318  16.883  1.00  9.87    -0.624 OA
HETATM   12  O2A GNP A 200      -4.517  26.312  16.065  1.00 11.09    -0.624 OA
BRANCH  10  13
HETATM   13  O3A GNP A 200      -3.465  23.994  16.353  1.00  9.21    -0.185 OA
BRANCH  13  14
HETATM   14  PB  GNP A 200      -3.047  23.377  17.715  1.00  8.42     0.401 P 
HETATM   15  O1B GNP A 200      -3.632  22.022  17.650  1.00  8.14    -0.628 OA
HETATM   16  O2B GNP A 200      -3.435  24.219  18.798  1.00  8.71    -0.628 OA
BRANCH  14  17
HETATM   17  N3B GNP A 200      -1.291  23.228  17.594  1.00  9.58    -0.091 NA
BRANCH  17  18
HETATM   18  PG  GNP A 200      -0.294  23.307  18.862  1.00  9.51     0.404 P 
HETATM   19  O1G GNP A 200      -0.540  22.071  19.761  1.00 10.72    -0.621 OA
HETATM   20  O2G GNP A 200      -0.460  24.533  19.539  1.00 10.01    -0.621 OA
HETATM   21  O3G GNP A 200       1.106  23.218  18.195  1.00 11.72    -0.621 OA
ENDBRANCH  17  18
ENDBRANCH  14  17
ENDBRANCH  13  14
ENDBRANCH  10  13
ENDBRANCH   9  10
ENDBRANCH   8   9
ENDBRANCH   1   8
BRANCH   7  22
HETATM   22  N9  GNP A 200      -4.215  23.002   9.619  1.00  9.54    -0.269 N 
HETATM   23  C4  GNP A 200      -4.004  22.930   8.328  1.00  9.54     0.187 A 
HETATM   24  N3  GNP A 200      -3.181  23.607   7.553  1.00 10.76    -0.039 NA
HETATM   25  C5  GNP A 200      -4.946  21.942   7.951  1.00  8.26     0.162 A 
HETATM   26  C2  GNP A 200      -3.143  23.365   6.342  1.00  9.86     0.772 A 
HETATM   27  N1  GNP A 200      -4.029  22.335   5.739  1.00 10.22    -0.029 NA
HETATM   28  N2  GNP A 200      -2.427  23.877   5.395  1.00 11.49     0.062 N 
HETATM   29  C6  GNP A 200      -4.863  21.700   6.556  1.00 10.19     0.251 A 
HETATM   30  O6  GNP A 200      -5.696  20.781   5.999  1.00 11.17    -0.167 OA
HETATM   31  N7  GNP A 200      -5.594  21.515   8.982  1.00  8.86    -0.219 NA
HETATM   32  C8  GNP A 200      -5.216  22.139  10.116  1.00 11.92     0.182 A 
ENDBRANCH   7  22
TORSDOF 8
ENDMDL
MODEL 3
REMARK VINA RESULT:    -6.098      4.389      6.662
REMARK INTER + INTRA:          -9.843
REMARK INTER:                  -8.280
REMARK INTRA:                  -1.562
REMARK UNBOUND:                -0.893
REMARK  8 active torsions:
REMARK  status: ('A' for Active; 'I' for Inactive)
REMARK    1  A    between atoms: PA_1  and  O5'_5 
REMARK    2  A    between atoms: PA_1  and  O3A_24 
REMARK    3  A    between atoms: PB_2  and  N3B_23 
REMARK    4  A    between atoms: PB_2  and  O3A_24 
REMARK    5  A    between atoms: PG_3  and  N3B_23 
REMARK    6  A    between atoms: C5'_4  and  O5'_5 
REMARK    7  A    between atoms: C5'_4  and  C4'_6 
REMARK    8  A    between atoms: C1'_12  and  N9_32 
ROOT
HETATM    1  C4' GNP A 200      -0.549  22.604  18.931  1.00 11.60     0.181 C 
HETATM    2  O4' GNP A 200      -0.765  22.828  17.501  1.00 10.96    -0.331 OA
HETATM    3  C3' GNP A 200      -1.874  22.968  19.617  1.00 12.08     0.216 C 
HETATM    4  O3' GNP A 200      -1.834  24.381  19.940  1.00 14.40    -0.218 OA
HETATM    5  C2' GNP A 200      -2.919  22.716  18.486  1.00 12.17     0.234 C 
HETATM    6  O2' GNP A 200      -4.105  23.557  18.535  1.00 13.60    -0.216 OA
HETATM    7  C1' GNP A 200      -2.149  23.181  17.233  1.00 11.60     0.241 C 
ENDROOT
BRANCH   1   8
HETATM    8  C5' GNP A 200      -0.091  21.229  19.202  1.00 10.62     0.187 C 
BRANCH   8   9
HETATM    9  O5' GNP A 200       1.350  21.150  19.291  1.00  9.72    -0.268 OA
BRANCH   9  10
HETATM   10  PA  GNP A 200       2.184  20.571  18.149  1.00 10.32     0.418 P 
HETATM   11  O1A GNP A 200       3.246  19.619  18.708  1.00  9.87    -0.624 OA
HETATM   12  O2A GNP A 200       2.622  21.662  17.192  1.00 11.09    -0.624 OA
BRANCH  10  13
HETATM   13  O3A GNP A 200       1.031  19.658  17.320  1.00  9.21    -0.185 OA
BRANCH  13  14
HETATM   14  PB  GNP A 200       1.081  19.163  15.849  1.00  8.42     0.401 P 
HETATM   15  O1B GNP A 200       0.386  20.243  15.120  1.00  8.14    -0.628 OA
HETATM   16  O2B GNP A 200       0.559  17.841  15.738  1.00  8.71    -0.628 OA
BRANCH  14  17
HETATM   17  N3B GNP A 200       2.796  19.230  15.435  1.00  9.58    -0.091 NA
BRANCH  17  18
HETATM   18  PG  GNP A 200       3.349  19.488  13.940  1.00  9.51     0.404 P 
HETATM   19  O1G GNP A 200       2.396  18.796  12.935  1.00 10.72    -0.621 OA
HETATM   20  O2G GNP A 200       4.687  19.055  13.831  1.00 10.01    -0.621 OA
HETATM   21  O3G GNP A 200       3.245  21.033  13.805  1.00 11.72    -0.621 OA
ENDBRANCH  17  18
ENDBRANCH  14  17
ENDBRANCH  13  14
ENDBRANCH  10  13
ENDBRANCH   9  10
ENDBRANCH   8   9
ENDBRANCH   1   8
BRANCH   7  22
HETATM   22  N9  GNP A 200      -2.525  22.564  15.911  1.00  9.54    -0.269 N 
HETATM   23  C4  GNP A 200      -2.556  23.176  14.754  1.00  9.54     0.187 A 
HETATM   24  N3  GNP A 200      -2.250  24.415  14.428  1.00 10.76    -0.039 NA
HETATM   25  C5  GNP A 200      -3.065  22.153  13.917  1.00  8.26     0.162 A 
HETATM   26  C2  GNP A 200      -2.351  24.782  13.253  1.00  9.86     0.772 A 
HETATM   27  N1  GNP A 200      -2.835  23.852  12.199  1.00 10.22    -0.029 NA
HETATM   28  N2  GNP A 200      -2.104  25.922  12.693  1.00 11.49     0.062 N 
HETATM   29  C6  GNP A 200      -3.161  22.621  12.582  1.00 10.19     0.251 A 
HETATM   30  O6  GNP A 200      -3.635  21.780  11.623  1.00 11.17    -0.167 OA
HETATM   31  N7  GNP A 200      -3.268  21.072  14.592  1.00  8.86    -0.219 NA
HETATM   32  C8  GNP A 200      -2.967  21.223  15.898  1.00 11.92     0.182 A 
ENDBRANCH   7  22
TORSDOF 8
ENDMDL
MODEL 4
REMARK VINA RESULT:    -6.079      3.092      5.171
REMARK INTER + INTRA:          -9.816
REMARK INTER:                  -8.328
REMARK INTRA:                  -1.489
REMARK UNBOUND:                -0.893
REMARK  8 active torsions:
REMARK  status: ('A' for Active; 'I' for Inactive)
REMARK    1  A    between atoms: PA_1  and  O5'_5 
REMARK    2  A    between atoms: PA_1  and  O3A_24 
REMARK    3  A    between atoms: PB_2  and  N3B_23 
REMARK    4  A    between atoms: PB_2  and  O3A_24 
REMARK    5  A    between atoms: PG_3  and  N3B_23 
REMARK    6  A    between atoms: C5'_4  and  O5'_5 
REMARK    7  A    between atoms: C5'_4  and  C4'_6 
REMARK    8  A    between atoms: C1'_12  and  N9_32 
ROOT
HETATM    1  C4' GNP A 200       0.232  22.802  24.442  1.00 11.60     0.181 C 
HETATM    2  O4' GNP A 200       1.422  23.203  23.690  1.00 10.96    -0.331 OA
HETATM    3  C3' GNP A 200       0.245  23.644  25.727  1.00 12.08     0.216 C 
HETATM    4  O3' GNP A 200       0.995  22.912  26.730  1.00 14.40    -0.218 OA
HETATM    5  C2' GNP A 200       1.046  24.911  25.292  1.00 12.17     0.234 C 
HETATM    6  O2' GNP A 200       1.809  25.559  26.347  1.00 13.60    -0.216 OA
HETATM    7  C1' GNP A 200       2.103  24.308  24.344  1.00 11.60     0.241 C 
ENDROOT
BRANCH   1   8
HETATM    8  C5' GNP A 200      -0.994  22.955  23.638  1.00 10.62     0.187 C 
BRANCH   8   9
HETATM    9  O5' GNP A 200      -0.782  23.808  22.490  1.00  9.72    -0.268 OA
BRANCH   9  10
HETATM   10  PA  GNP A 200      -1.318  23.429  21.110  1.00 10.32     0.418 P 
HETATM   11  O1A GNP A 200      -2.091  24.606  20.508  1.00  9.87    -0.624 OA
HETATM   12  O2A GNP A 200      -1.983  22.068  21.143  1.00 11.09    -0.624 OA
BRANCH  10  13
HETATM   13  O3A GNP A 200       0.114  23.228  20.238  1.00  9.21    -0.185 OA
BRANCH  13  14
HETATM   14  PB  GNP A 200       0.358  23.495  18.728  1.00  8.42     0.401 P 
HETATM   15  O1B GNP A 200       0.829  24.894  18.718  1.00  8.14    -0.628 OA
HETATM   16  O2B GNP A 200      -0.799  23.175  17.960  1.00  8.71    -0.628 OA
BRANCH  14  17
HETATM   17  N3B GNP A 200       1.724  22.448  18.327  1.00  9.58    -0.091 NA
BRANCH  17  18
HETATM   18  PG  GNP A 200       1.620  20.840  18.219  1.00  9.51     0.404 P 
HETATM   19  O1G GNP A 200       0.837  20.481  16.932  1.00 10.72    -0.621 OA
HETATM   20  O2G GNP A 200       1.044  20.307  19.391  1.00 10.01    -0.621 OA
HETATM   21  O3G GNP A 200       3.109  20.416  18.080  1.00 11.72    -0.621 OA
ENDBRANCH  17  18
ENDBRANCH  14  17
ENDBRANCH  13  14
ENDBRANCH  10  13
ENDBRANCH   9  10
ENDBRANCH   8   9
ENDBRANCH   1   8
BRANCH   7  22
HETATM   22  N9  GNP A 200       2.661  25.197  23.264  1.00  9.54    -0.269 N 
HETATM   23  C4  GNP A 200       3.920  25.522  23.104  1.00  9.54     0.187 A 
HETATM   24  N3  GNP A 200       4.993  25.156  23.774  1.00 10.76    -0.039 NA
HETATM   25  C5  GNP A 200       3.833  26.433  22.023  1.00  8.26     0.162 A 
HETATM   26  C2  GNP A 200       6.101  25.589  23.440  1.00  9.86     0.772 A 
HETATM   27  N1  GNP A 200       6.241  26.536  22.303  1.00 10.22    -0.029 NA
HETATM   28  N2  GNP A 200       7.281  25.373  23.925  1.00 11.49     0.062 N 
HETATM   29  C6  GNP A 200       5.127  26.900  21.677  1.00 10.19     0.251 A 
HETATM   30  O6  GNP A 200       5.252  27.791  20.657  1.00 11.17    -0.167 OA
HETATM   31  N7  GNP A 200       2.610  26.561  21.633  1.00  8.86    -0.219 NA
HETATM   32  C8  GNP A 200       1.760  25.819  22.372  1.00 11.92     0.182 A 
ENDBRANCH   7  22
TORSDOF 8
ENDMDL
MODEL 5
REMARK VINA RESULT:    -6.068      2.662      4.331
REMARK INTER + INTRA:          -9.799
REMARK INTER:                  -8.538
REMARK INTRA:                  -1.261
REMARK UNBOUND:                -0.893
REMARK  8 active torsions:
REMARK  status: ('A' for Active; 'I' for Inactive)
REMARK    1  A    between atoms: PA_1  and  O5'_5 
REMARK    2  A    between atoms: PA_1  and  O3A_24 
REMARK    3  A    between atoms: PB_2  and  N3B_23 
REMARK    4  A    between atoms: PB_2  and  O3A_24 
REMARK    5  A    between atoms: PG_3  and  N3B_23 
REMARK    6  A    between atoms: C5'_4  and  O5'_5 
REMARK    7  A    between atoms: C5'_4  and  C4'_6 
REMARK    8  A    between atoms: C1'_12  and  N9_32 
ROOT
HETATM    1  C4' GNP A 200      -0.101  22.971  23.195  1.00 11.60     0.181 C 
HETATM    2  O4' GNP A 200       1.312  23.352  23.152  1.00 10.96    -0.331 OA
HETATM    3  C3' GNP A 200      -0.788  24.011  24.093  1.00 12.08     0.216 C 
HETATM    4  O3' GNP A 200      -0.726  23.529  25.459  1.00 14.40    -0.218 OA
HETATM    5  C2' GNP A 200       0.138  25.258  23.932  1.00 12.17     0.234 C 
HETATM    6  O2' GNP A 200       0.200  26.140  25.087  1.00 13.60    -0.216 OA
HETATM    7  C1' GNP A 200       1.534  24.608  23.848  1.00 11.60     0.241 C 
ENDROOT
BRANCH   1   8
HETATM    8  C5' GNP A 200      -0.677  22.873  21.841  1.00 10.62     0.187 C 
BRANCH   8   9
HETATM    9  O5' GNP A 200       0.288  23.213  20.820  1.00  9.72    -0.268 OA
BRANCH   9  10
HETATM   10  PA  GNP A 200      -0.145  23.857  19.503  1.00 10.32     0.418 P 
HETATM   11  O1A GNP A 200       0.696  25.108  19.232  1.00  9.87    -0.624 OA
HETATM   12  O2A GNP A 200      -1.653  23.968  19.425  1.00 11.09    -0.624 OA
BRANCH  10  13
HETATM   13  O3A GNP A 200       0.295  22.667  18.388  1.00  9.21    -0.185 OA
BRANCH  13  14
HETATM   14  PB  GNP A 200      -0.408  21.310  18.112  1.00  8.42     0.401 P 
HETATM   15  O1B GNP A 200      -1.361  21.652  17.037  1.00  8.14    -0.628 OA
HETATM   16  O2B GNP A 200      -0.932  20.753  19.314  1.00  8.71    -0.628 OA
BRANCH  14  17
HETATM   17  N3B GNP A 200       0.868  20.303  17.421  1.00  9.58    -0.091 NA
BRANCH  17  18
HETATM   18  PG  GNP A 200       2.430  20.446  17.805  1.00  9.51     0.404 P 
HETATM   19  O1G GNP A 200       2.993  21.715  17.119  1.00 10.72    -0.621 OA
HETATM   20  O2G GNP A 200       3.128  19.269  17.461  1.00 10.01    -0.621 OA
HETATM   21  O3G GNP A 200       2.382  20.642  19.345  1.00 11.72    -0.621 OA
ENDBRANCH  17  18
ENDBRANCH  14  17
ENDBRANCH  13  14
ENDBRANCH  10  13
ENDBRANCH   9  10
ENDBRANCH   8   9
ENDBRANCH   1   8
BRANCH   7  22
HETATM   22  N9  GNP A 200       2.608  25.354  23.100  1.00  9.54    -0.269 N 
HETATM   23  C4  GNP A 200       3.886  25.362  23.388  1.00  9.54     0.187 A 
HETATM   24  N3  GNP A 200       4.559  24.730  24.328  1.00 10.76    -0.039 NA
HETATM   25  C5  GNP A 200       4.375  26.288  22.435  1.00  8.26     0.162 A 
HETATM   26  C2  GNP A 200       5.782  24.884  24.413  1.00  9.86     0.772 A 
HETATM   27  N1  GNP A 200       6.506  25.791  23.485  1.00 10.22    -0.029 NA
HETATM   28  N2  GNP A 200       6.648  24.375  25.228  1.00 11.49     0.062 N 
HETATM   29  C6  GNP A 200       5.780  26.430  22.573  1.00 10.19     0.251 A 
HETATM   30  O6  GNP A 200       6.439  27.283  21.744  1.00 11.17    -0.167 OA
HETATM   31  N7  GNP A 200       3.417  26.721  21.687  1.00  8.86    -0.219 NA
HETATM   32  C8  GNP A 200       2.224  26.196  22.034  1.00 11.92     0.182 A 
ENDBRANCH   7  22
TORSDOF 8
ENDMDL
MODEL 6
REMARK VINA RESULT:    -5.856      5.031      8.039
REMARK INTER + INTRA:          -9.488
REMARK INTER:                  -8.293
REMARK INTRA:                  -1.195
REMARK UNBOUND:                -0.893
REMARK  8 active torsions:
REMARK  status: ('A' for Active; 'I' for Inactive)
REMARK    1  A    between atoms: PA_1  and  O5'_5 
REMARK    2  A    between atoms: PA_1  and  O3A_24 
REMARK    3  A    between atoms: PB_2  and  N3B_23 
REMARK    4  A    between atoms: PB_2  and  O3A_24 
REMARK    5  A    between atoms: PG_3  and  N3B_23 
REMARK    6  A    between atoms: C5'_4  and  O5'_5 
REMARK    7  A    between atoms: C5'_4  and  C4'_6 
REMARK    8  A    between atoms: C1'_12  and  N9_32 
ROOT
HETATM    1  C4' GNP A 200      -2.124  22.974  17.342  1.00 11.60     0.181 C 
HETATM    2  O4' GNP A 200      -1.716  23.179  15.952  1.00 10.96    -0.331 OA
HETATM    3  C3' GNP A 200      -3.652  23.126  17.358  1.00 12.08     0.216 C 
HETATM    4  O3' GNP A 200      -3.959  24.524  17.585  1.00 14.40    -0.218 OA
HETATM    5  C2' GNP A 200      -4.044  22.731  15.899  1.00 12.17     0.234 C 
HETATM    6  O2' GNP A 200      -5.235  23.381  15.376  1.00 13.60    -0.216 OA
HETATM    7  C1' GNP A 200      -2.874  23.322  15.086  1.00 11.60     0.241 C 
ENDROOT
BRANCH   1   8
HETATM    8  C5' GNP A 200      -1.644  21.682  17.864  1.00 10.62     0.187 C 
BRANCH   8   9
HETATM    9  O5' GNP A 200      -0.445  21.240  17.186  1.00  9.72    -0.268 OA
BRANCH   9  10
HETATM   10  PA  GNP A 200       0.736  20.657  17.961  1.00 10.32     0.418 P 
HETATM   11  O1A GNP A 200       0.267  20.162  19.332  1.00  9.87    -0.624 OA
HETATM   12  O2A GNP A 200       1.934  21.581  17.896  1.00 11.09    -0.624 OA
BRANCH  10  13
HETATM   13  O3A GNP A 200       1.129  19.315  17.014  1.00  9.21    -0.185 OA
BRANCH  13  14
HETATM   14  PB  GNP A 200       2.465  19.022  16.280  1.00  8.42     0.401 P 
HETATM   15  O1B GNP A 200       2.233  17.681  15.708  1.00  8.14    -0.628 OA
HETATM   16  O2B GNP A 200       3.576  19.190  17.156  1.00  8.71    -0.628 OA
BRANCH  14  17
HETATM   17  N3B GNP A 200       2.488  20.192  14.956  1.00  9.58    -0.091 NA
BRANCH  17  18
HETATM   18  PG  GNP A 200       3.235  19.938  13.547  1.00  9.51     0.404 P 
HETATM   19  O1G GNP A 200       4.479  19.052  13.801  1.00 10.72    -0.621 OA
HETATM   20  O2G GNP A 200       3.541  21.168  12.927  1.00 10.01    -0.621 OA
HETATM   21  O3G GNP A 200       2.168  19.151  12.738  1.00 11.72    -0.621 OA
ENDBRANCH  17  18
ENDBRANCH  14  17
ENDBRANCH  13  14
ENDBRANCH  10  13
ENDBRANCH   9  10
ENDBRANCH   8   9
ENDBRANCH   1   8
BRANCH   7  22
HETATM   22  N9  GNP A 200      -2.537  22.670  13.770  1.00  9.54    -0.269 N 
HETATM   23  C4  GNP A 200      -2.858  23.116  12.582  1.00  9.54     0.187 A 
HETATM   24  N3  GNP A 200      -3.491  24.212  12.218  1.00 10.76    -0.039 NA
HETATM   25  C5  GNP A 200      -2.380  22.069  11.757  1.00  8.26     0.162 A 
HETATM   26  C2  GNP A 200      -3.684  24.439  11.019  1.00  9.86     0.772 A 
HETATM   27  N1  GNP A 200      -3.230  23.481   9.977  1.00 10.22    -0.029 NA
HETATM   28  N2  GNP A 200      -4.260  25.432  10.422  1.00 11.49     0.062 N 
HETATM   29  C6  GNP A 200      -2.623  22.375  10.394  1.00 10.19     0.251 A 
HETATM   30  O6  GNP A 200      -2.237  21.484   9.441  1.00 11.17    -0.167 OA
HETATM   31  N7  GNP A 200      -1.830  21.144  12.469  1.00  8.86    -0.219 NA
HETATM   32  C8  GNP A 200      -1.885  21.417  13.789  1.00 11.92     0.182 A 
ENDBRANCH   7  22
TORSDOF 8
ENDMDL
MODEL 7
REMARK VINA RESULT:    -5.817      3.486      8.160
REMARK INTER + INTRA:          -9.431
REMARK INTER:                  -8.309
REMARK INTRA:                  -1.123
REMARK UNBOUND:                -0.893
REMARK  8 active torsions:
REMARK  status: ('A' for Active; 'I' for Inactive)
REMARK    1  A    between atoms: PA_1  and  O5'_5 
REMARK    2  A    between atoms: PA_1  and  O3A_24 
REMARK    3  A    between atoms: PB_2  and  N3B_23 
REMARK    4  A    between atoms: PB_2  and  O3A_24 
REMARK    5  A    between atoms: PG_3  and  N3B_23 
REMARK    6  A    between atoms: C5'_4  and  O5'_5 
REMARK    7  A    between atoms: C5'_4  and  C4'_6 
REMARK    8  A    between atoms: C1'_12  and  N9_32 
ROOT
HETATM    1  C4' GNP A 200       0.297  18.775  19.967  1.00 11.60     0.181 C 
HETATM    2  O4' GNP A 200       0.368  18.424  18.549  1.00 10.96    -0.331 OA
HETATM    3  C3' GNP A 200       1.740  18.698  20.490  1.00 12.08     0.216 C 
HETATM    4  O3' GNP A 200       1.977  17.343  20.946  1.00 14.40    -0.218 OA
HETATM    5  C2' GNP A 200       2.579  18.975  19.203  1.00 12.17     0.234 C 
HETATM    6  O2' GNP A 200       3.885  18.336  19.162  1.00 13.60    -0.216 OA
HETATM    7  C1' GNP A 200       1.746  18.257  18.121  1.00 11.60     0.241 C 
ENDROOT
BRANCH   1   8
HETATM    8  C5' GNP A 200      -0.346  20.086  20.171  1.00 10.62     0.187 C 
BRANCH   8   9
HETATM    9  O5' GNP A 200      -0.609  20.756  18.917  1.00  9.72    -0.268 OA
BRANCH   9  10
HETATM   10  PA  GNP A 200      -0.031  22.140  18.621  1.00 10.32     0.418 P 
HETATM   11  O1A GNP A 200      -1.004  22.936  17.747  1.00  9.87    -0.624 OA
HETATM   12  O2A GNP A 200       1.417  22.040  18.186  1.00 11.09    -0.624 OA
BRANCH  10  13
HETATM   13  O3A GNP A 200      -0.010  22.830  20.162  1.00  9.21    -0.185 OA
BRANCH  13  14
HETATM   14  PB  GNP A 200       0.289  24.306  20.543  1.00  8.42     0.401 P 
HETATM   15  O1B GNP A 200      -0.895  24.679  21.343  1.00  8.14    -0.628 OA
HETATM   16  O2B GNP A 200       0.583  25.083  19.386  1.00  8.71    -0.628 OA
BRANCH  14  17
HETATM   17  N3B GNP A 200       1.677  24.192  21.629  1.00  9.58    -0.091 NA
BRANCH  17  18
HETATM   18  PG  GNP A 200       2.364  25.467  22.344  1.00  9.51     0.404 P 
HETATM   19  O1G GNP A 200       1.489  25.888  23.550  1.00 10.72    -0.621 OA
HETATM   20  O2G GNP A 200       2.563  26.504  21.408  1.00 10.01    -0.621 OA
HETATM   21  O3G GNP A 200       3.719  24.887  22.836  1.00 11.72    -0.621 OA
ENDBRANCH  17  18
ENDBRANCH  14  17
ENDBRANCH  13  14
ENDBRANCH  10  13
ENDBRANCH   9  10
ENDBRANCH   8   9
ENDBRANCH   1   8
BRANCH   7  22
HETATM   22  N9  GNP A 200       1.846  18.768  16.708  1.00  9.54    -0.269 N 
HETATM   23  C4  GNP A 200       2.905  18.714  15.939  1.00  9.54     0.187 A 
HETATM   24  N3  GNP A 200       4.096  18.194  16.153  1.00 10.76    -0.039 NA
HETATM   25  C5  GNP A 200       2.451  19.418  14.797  1.00  8.26     0.162 A 
HETATM   26  C2  GNP A 200       4.957  18.253  15.269  1.00  9.86     0.772 A 
HETATM   27  N1  GNP A 200       4.678  18.922  13.972  1.00 10.22    -0.029 NA
HETATM   28  N2  GNP A 200       6.174  17.815  15.237  1.00 11.49     0.062 N 
HETATM   29  C6  GNP A 200       3.472  19.458  13.814  1.00 10.19     0.251 A 
HETATM   30  O6  GNP A 200       3.227  20.098  12.638  1.00 11.17    -0.167 OA
HETATM   31  N7  GNP A 200       1.228  19.800  14.954  1.00  8.86    -0.219 NA
HETATM   32  C8  GNP A 200       0.736  19.448  16.160  1.00 11.92     0.182 A 
ENDBRANCH   7  22
TORSDOF 8
ENDMDL
MODEL 8
REMARK VINA RESULT:    -5.799      2.157      3.550
REMARK INTER + INTRA:          -9.404
REMARK INTER:                  -8.132
REMARK INTRA:                  -1.272
REMARK UNBOUND:                -0.893
REMARK  8 active torsions:
REMARK  status: ('A' for Active; 'I' for Inactive)
REMARK    1  A    between atoms: PA_1  and  O5'_5 
REMARK    2  A    between atoms: PA_1  and  O3A_24 
REMARK    3  A    between atoms: PB_2  and  N3B_23 
REMARK    4  A    between atoms: PB_2  and  O3A_24 
REMARK    5  A    between atoms: PG_3  and  N3B_23 
REMARK    6  A    between atoms: C5'_4  and  O5'_5 
REMARK    7  A    between atoms: C5'_4  and  C4'_6 
REMARK    8  A    between atoms: C1'_12  and  N9_32 
ROOT
HETATM    1  C4' GNP A 200       1.415  21.457  22.515  1.00 11.60     0.181 C 
HETATM    2  O4' GNP A 200       2.495  22.445  22.526  1.00 10.96    -0.331 OA
HETATM    3  C3' GNP A 200       0.339  22.002  23.467  1.00 12.08     0.216 C 
HETATM    4  O3' GNP A 200       0.633  21.510  24.799  1.00 14.40    -0.218 OA
HETATM    5  C2' GNP A 200       0.587  23.542  23.408  1.00 12.17     0.234 C 
HETATM    6  O2' GNP A 200       0.253  24.274  24.620  1.00 13.60    -0.216 OA
HETATM    7  C1' GNP A 200       2.124  23.612  23.307  1.00 11.60     0.241 C 
ENDROOT
BRANCH   1   8
HETATM    8  C5' GNP A 200       0.930  21.198  21.147  1.00 10.62     0.187 C 
BRANCH   8   9
HETATM    9  O5' GNP A 200       1.342  22.233  20.225  1.00  9.72    -0.268 OA
BRANCH   9  10
HETATM   10  PA  GNP A 200       0.475  22.619  19.028  1.00 10.32     0.418 P 
HETATM   11  O1A GNP A 200       1.059  23.856  18.338  1.00  9.87    -0.624 OA
HETATM   12  O2A GNP A 200      -0.993  22.626  19.402  1.00 11.09    -0.624 OA
BRANCH  10  13
HETATM   13  O3A GNP A 200       0.693  21.288  18.013  1.00  9.21    -0.185 OA
BRANCH  13  14
HETATM   14  PB  GNP A 200       2.027  20.713  17.465  1.00  8.42     0.401 P 
HETATM   15  O1B GNP A 200       2.331  19.630  18.422  1.00  8.14    -0.628 OA
HETATM   16  O2B GNP A 200       2.996  21.744  17.296  1.00  8.71    -0.628 OA
BRANCH  14  17
HETATM   17  N3B GNP A 200       1.573  19.978  15.924  1.00  9.58    -0.091 NA
BRANCH  17  18
HETATM   18  PG  GNP A 200       2.639  19.467  14.824  1.00  9.51     0.404 P 
HETATM   19  O1G GNP A 200       1.908  18.545  13.818  1.00 10.72    -0.621 OA
HETATM   20  O2G GNP A 200       3.736  18.846  15.458  1.00 10.01    -0.621 OA
HETATM   21  O3G GNP A 200       3.067  20.790  14.131  1.00 11.72    -0.621 OA
ENDBRANCH  17  18
ENDBRANCH  14  17
ENDBRANCH  13  14
ENDBRANCH  10  13
ENDBRANCH   9  10
ENDBRANCH   8   9
ENDBRANCH   1   8
BRANCH   7  22
HETATM   22  N9  GNP A 200       2.727  24.817  22.633  1.00  9.54    -0.269 N 
HETATM   23  C4  GNP A 200       3.955  25.249  22.775  1.00  9.54     0.187 A 
HETATM   24  N3  GNP A 200       4.961  24.763  23.473  1.00 10.76    -0.039 NA
HETATM   25  C5  GNP A 200       3.919  26.436  22.004  1.00  8.26     0.162 A 
HETATM   26  C2  GNP A 200       6.053  25.342  23.458  1.00  9.86     0.772 A 
HETATM   27  N1  GNP A 200       6.244  26.594  22.681  1.00 10.22    -0.029 NA
HETATM   28  N2  GNP A 200       7.173  25.060  24.041  1.00 11.49     0.062 N 
HETATM   29  C6  GNP A 200       5.192  27.062  22.017  1.00 10.19     0.251 A 
HETATM   30  O6  GNP A 200       5.359  28.225  21.332  1.00 11.17    -0.167 OA
HETATM   31  N7  GNP A 200       2.752  26.603  21.479  1.00  8.86    -0.219 NA
HETATM   32  C8  GNP A 200       1.893  25.624  21.828  1.00 11.92     0.182 A 
ENDBRANCH   7  22
TORSDOF 8
ENDMDL
MODEL 9
REMARK VINA RESULT:    -5.782      4.831      7.200
REMARK INTER + INTRA:          -9.379
REMARK INTER:                  -8.354
REMARK INTRA:                  -1.025
REMARK UNBOUND:                -0.893
REMARK  8 active torsions:
REMARK  status: ('A' for Active; 'I' for Inactive)
REMARK    1  A    between atoms: PA_1  and  O5'_5 
REMARK    2  A    between atoms: PA_1  and  O3A_24 
REMARK    3  A    between atoms: PB_2  and  N3B_23 
REMARK    4  A    between atoms: PB_2  and  O3A_24 
REMARK    5  A    between atoms: PG_3  and  N3B_23 
REMARK    6  A    between atoms: C5'_4  and  O5'_5 
REMARK    7  A    between atoms: C5'_4  and  C4'_6 
REMARK    8  A    between atoms: C1'_12  and  N9_32 
ROOT
HETATM    1  C4' GNP A 200       4.688  24.819  23.997  1.00 11.60     0.181 C 
HETATM    2  O4' GNP A 200       6.111  25.131  24.133  1.00 10.96    -0.331 OA
HETATM    3  C3' GNP A 200       4.171  25.708  22.856  1.00 12.08     0.216 C 
HETATM    4  O3' GNP A 200       3.732  26.963  23.433  1.00 14.40    -0.218 OA
HETATM    5  C2' GNP A 200       5.457  25.942  22.003  1.00 12.17     0.234 C 
HETATM    6  O2' GNP A 200       5.510  27.209  21.291  1.00 13.60    -0.216 OA
HETATM    7  C1' GNP A 200       6.545  26.047  23.091  1.00 11.60     0.241 C 
ENDROOT
BRANCH   1   8
HETATM    8  C5' GNP A 200       4.466  23.377  23.782  1.00 10.62     0.187 C 
BRANCH   8   9
HETATM    9  O5' GNP A 200       3.557  23.132  22.685  1.00  9.72    -0.268 OA
BRANCH   9  10
HETATM   10  PA  GNP A 200       2.128  22.649  22.933  1.00 10.32     0.418 P 
HETATM   11  O1A GNP A 200       1.671  23.067  24.334  1.00  9.87    -0.624 OA
HETATM   12  O2A GNP A 200       1.968  21.199  22.522  1.00 11.09    -0.624 OA
BRANCH  10  13
HETATM   13  O3A GNP A 200       1.267  23.554  21.798  1.00  9.21    -0.185 OA
BRANCH  13  14
HETATM   14  PB  GNP A 200      -0.248  23.895  21.798  1.00  8.42     0.401 P 
HETATM   15  O1B GNP A 200      -0.311  25.095  22.656  1.00  8.14    -0.628 OA
HETATM   16  O2B GNP A 200      -1.026  22.763  22.178  1.00  8.71    -0.628 OA
BRANCH  14  17
HETATM   17  N3B GNP A 200      -0.574  24.388  20.133  1.00  9.58    -0.091 NA
BRANCH  17  18
HETATM   18  PG  GNP A 200      -0.262  23.463  18.847  1.00  9.51     0.404 P 
HETATM   19  O1G GNP A 200      -1.495  23.487  17.911  1.00 10.72    -0.621 OA
HETATM   20  O2G GNP A 200       0.104  22.163  19.256  1.00 10.01    -0.621 OA
HETATM   21  O3G GNP A 200       0.934  24.201  18.183  1.00 11.72    -0.621 OA
ENDBRANCH  17  18
ENDBRANCH  14  17
ENDBRANCH  13  14
ENDBRANCH  10  13
ENDBRANCH   9  10
ENDBRANCH   8   9
ENDBRANCH   1   8
BRANCH   7  22
HETATM   22  N9  GNP A 200       7.952  25.666  22.713  1.00  9.54    -0.269 N 
HETATM   23  C4  GNP A 200       9.050  26.101  23.280  1.00  9.54     0.187 A 
HETATM   24  N3  GNP A 200       9.225  26.911  24.304  1.00 10.76    -0.039 NA
HETATM   25  C5  GNP A 200      10.038  25.500  22.462  1.00  8.26     0.162 A 
HETATM   26  C2  GNP A 200      10.370  27.185  24.679  1.00  9.86     0.772 A 
HETATM   27  N1  GNP A 200      11.558  26.630  23.979  1.00 10.22    -0.029 NA
HETATM   28  N2  GNP A 200      10.792  27.932  25.647  1.00 11.49     0.062 N 
HETATM   29  C6  GNP A 200      11.331  25.842  22.933  1.00 10.19     0.251 A 
HETATM   30  O6  GNP A 200      12.419  25.361  22.273  1.00 11.17    -0.167 OA
HETATM   31  N7  GNP A 200       9.490  24.784  21.539  1.00  8.86    -0.219 NA
HETATM   32  C8  GNP A 200       8.143  24.827  21.593  1.00 11.92     0.182 A 
ENDBRANCH   7  22
TORSDOF 8
ENDMDL
