MODEL 1
REMARK VINA RESULT:    -8.392      0.000      0.000
REMARK INTER + INTRA:         -13.180
REMARK INTER:                 -12.317
REMARK INTRA:                  -0.863
REMARK UNBOUND:                -0.863
REMARK  8 active torsions:
REMARK  status: ('A' for Active; 'I' for Inactive)
REMARK    1  A    between atoms: PA_1  and  O5'_5 
REMARK    2  A    between atoms: PA_1  and  O3A_24 
REMARK    3  A    between atoms: PB_2  and  N3B_23 
REMARK    4  A    between atoms: PB_2  and  O3A_24 
REMARK    5  A    between atoms: PG_3  and  N3B_23 
REMARK    6  A    between atoms: C5'_4  and  O5'_5 
REMARK    7  A    between atoms: C5'_4  and  C4'_6 
REMARK    8  A    between atoms: C1'_12  and  N9_32 
ROOT
HETATM    1  C4' GNP A 200       2.231  47.995  17.332  1.00 11.60     0.181 C 
HETATM    2  O4' GNP A 200       1.010  48.293  18.081  1.00 10.96    -0.331 OA
HETATM    3  C3' GNP A 200       2.834  49.356  16.953  1.00 12.08     0.216 C 
HETATM    4  O3' GNP A 200       2.273  49.750  15.676  1.00 14.40    -0.218 OA
HETATM    5  C2' GNP A 200       2.288  50.290  18.078  1.00 12.17     0.234 C 
HETATM    6  O2' GNP A 200       2.083  51.678  17.691  1.00 13.60    -0.216 OA
HETATM    7  C1' GNP A 200       0.871  49.723  18.303  1.00 11.60     0.241 C 
ENDROOT
BRANCH   1   8
HETATM    8  C5' GNP A 200       3.142  47.129  18.103  1.00 10.62     0.187 C 
BRANCH   8   9
HETATM    9  O5' GNP A 200       2.768  45.736  18.009  1.00  9.72    -0.268 OA
BRANCH   9  10
HETATM   10  PA  GNP A 200       3.790  44.663  17.636  1.00 10.32     0.418 P 
HETATM   11  O1A GNP A 200       3.303  43.290  18.111  1.00  9.87    -0.624 OA
HETATM   12  O2A GNP A 200       5.193  45.100  18.006  1.00 11.09    -0.624 OA
BRANCH  10  13
HETATM   13  O3A GNP A 200       3.717  44.702  15.950  1.00  9.21    -0.185 OA
BRANCH  13  14
HETATM   14  PB  GNP A 200       4.525  43.845  14.938  1.00  8.42     0.401 P 
HETATM   15  O1B GNP A 200       3.468  43.082  14.244  1.00  8.14    -0.628 OA
HETATM   16  O2B GNP A 200       5.553  43.110  15.598  1.00  8.71    -0.628 OA
BRANCH  14  17
HETATM   17  N3B GNP A 200       5.186  45.030  13.808  1.00  9.58    -0.091 NA
BRANCH  17  18
HETATM   18  PG  GNP A 200       5.853  46.429  14.263  1.00  9.51     0.404 P 
HETATM   19  O1G GNP A 200       4.768  47.294  14.948  1.00 10.72    -0.621 OA
HETATM   20  O2G GNP A 200       6.459  47.063  13.158  1.00 10.01    -0.621 OA
HETATM   21  O3G GNP A 200       6.915  45.972  15.301  1.00 11.72    -0.621 OA
ENDBRANCH  17  18
ENDBRANCH  14  17
ENDBRANCH  13  14
ENDBRANCH  10  13
ENDBRANCH   9  10
ENDBRANCH   8   9
ENDBRANCH   1   8
BRANCH   7  22
HETATM   22  N9  GNP A 200       0.249  49.910  19.662  1.00  9.54    -0.269 N 
HETATM   23  C4  GNP A 200      -0.893  49.413  20.064  1.00  9.54     0.187 A 
HETATM   24  N3  GNP A 200      -1.751  48.624  19.451  1.00 10.76    -0.039 NA
HETATM   25  C5  GNP A 200      -1.005  49.991  21.352  1.00  8.26     0.162 A 
HETATM   26  C2  GNP A 200      -2.781  48.268  20.033  1.00  9.86     0.772 A 
HETATM   27  N1  GNP A 200      -3.080  48.734  21.412  1.00 10.22    -0.029 NA
HETATM   28  N2  GNP A 200      -3.752  47.503  19.652  1.00 11.49     0.062 N 
HETATM   29  C6  GNP A 200      -2.200  49.553  21.979  1.00 10.19     0.251 A 
HETATM   30  O6  GNP A 200      -2.490  50.004  23.229  1.00 11.17    -0.167 OA
HETATM   31  N7  GNP A 200       0.022  50.729  21.611  1.00  8.86    -0.219 NA
HETATM   32  C8  GNP A 200       0.895  50.764  20.584  1.00 11.92     0.182 A 
ENDBRANCH   7  22
TORSDOF 8
ENDMDL
MODEL 2
REMARK VINA RESULT:    -8.081      1.703      2.150
REMARK INTER + INTRA:         -12.723
REMARK INTER:                 -11.721
REMARK INTRA:                  -1.002
REMARK UNBOUND:                -0.863
REMARK  8 active torsions:
REMARK  status: ('A' for Active; 'I' for Inactive)
REMARK    1  A    between atoms: PA_1  and  O5'_5 
REMARK    2  A    between atoms: PA_1  and  O3A_24 
REMARK    3  A    between atoms: PB_2  and  N3B_23 
REMARK    4  A    between atoms: PB_2  and  O3A_24 
REMARK    5  A    between atoms: PG_3  and  N3B_23 
REMARK    6  A    between atoms: C5'_4  and  O5'_5 
REMARK    7  A    between atoms: C5'_4  and  C4'_6 
REMARK    8  A    between atoms: C1'_12  and  N9_32 
ROOT
HETATM    1  C4' GNP A 200       1.867  48.182  17.570  1.00 11.60     0.181 C 
HETATM    2  O4' GNP A 200       1.265  48.685  18.806  1.00 10.96    -0.331 OA
HETATM    3  C3' GNP A 200       2.221  49.425  16.740  1.00 12.08     0.216 C 
HETATM    4  O3' GNP A 200       1.071  49.755  15.921  1.00 14.40    -0.218 OA
HETATM    5  C2' GNP A 200       2.416  50.518  17.838  1.00 12.17     0.234 C 
HETATM    6  O2' GNP A 200       2.091  51.876  17.430  1.00 13.60    -0.216 OA
HETATM    7  C1' GNP A 200       1.330  50.135  18.863  1.00 11.60     0.241 C 
ENDROOT
BRANCH   1   8
HETATM    8  C5' GNP A 200       3.015  47.298  17.846  1.00 10.62     0.187 C 
BRANCH   8   9
HETATM    9  O5' GNP A 200       2.636  45.903  17.823  1.00  9.72    -0.268 OA
BRANCH   9  10
HETATM   10  PA  GNP A 200       3.666  44.806  17.558  1.00 10.32     0.418 P 
HETATM   11  O1A GNP A 200       3.136  43.459  18.058  1.00  9.87    -0.624 OA
HETATM   12  O2A GNP A 200       5.049  45.245  17.993  1.00 11.09    -0.624 OA
BRANCH  10  13
HETATM   13  O3A GNP A 200       3.695  44.775  15.870  1.00  9.21    -0.185 OA
BRANCH  13  14
HETATM   14  PB  GNP A 200       4.552  43.868  14.945  1.00  8.42     0.401 P 
HETATM   15  O1B GNP A 200       3.530  43.138  14.169  1.00  8.14    -0.628 OA
HETATM   16  O2B GNP A 200       5.485  43.103  15.704  1.00  8.71    -0.628 OA
BRANCH  14  17
HETATM   17  N3B GNP A 200       5.360  45.006  13.863  1.00  9.58    -0.091 NA
BRANCH  17  18
HETATM   18  PG  GNP A 200       6.102  46.350  14.366  1.00  9.51     0.404 P 
HETATM   19  O1G GNP A 200       6.727  47.058  13.139  1.00 10.72    -0.621 OA
HETATM   20  O2G GNP A 200       7.040  46.043  15.374  1.00 10.01    -0.621 OA
HETATM   21  O3G GNP A 200       4.925  47.192  14.932  1.00 11.72    -0.621 OA
ENDBRANCH  17  18
ENDBRANCH  14  17
ENDBRANCH  13  14
ENDBRANCH  10  13
ENDBRANCH   9  10
ENDBRANCH   8   9
ENDBRANCH   1   8
BRANCH   7  22
HETATM   22  N9  GNP A 200       1.558  50.520  20.302  1.00  9.54    -0.269 N 
HETATM   23  C4  GNP A 200       0.635  50.859  21.167  1.00  9.54     0.187 A 
HETATM   24  N3  GNP A 200      -0.675  50.918  21.047  1.00 10.76    -0.039 NA
HETATM   25  C5  GNP A 200       1.426  51.205  22.290  1.00  8.26     0.162 A 
HETATM   26  C2  GNP A 200      -1.363  51.265  22.012  1.00  9.86     0.772 A 
HETATM   27  N1  GNP A 200      -0.734  51.640  23.305  1.00 10.22    -0.029 NA
HETATM   28  N2  GNP A 200      -2.645  51.389  22.143  1.00 11.49     0.062 N 
HETATM   29  C6  GNP A 200       0.593  51.595  23.369  1.00 10.19     0.251 A 
HETATM   30  O6  GNP A 200       1.170  51.968  24.543  1.00 11.17    -0.167 OA
HETATM   31  N7  GNP A 200       2.680  51.039  22.032  1.00  8.86    -0.219 NA
HETATM   32  C8  GNP A 200       2.887  50.612  20.769  1.00 11.92     0.182 A 
ENDBRANCH   7  22
TORSDOF 8
ENDMDL
MODEL 3
REMARK VINA RESULT:    -7.765      2.505      3.095
REMARK INTER + INTRA:         -12.259
REMARK INTER:                 -11.486
REMARK INTRA:                  -0.773
REMARK UNBOUND:                -0.863
REMARK  8 active torsions:
REMARK  status: ('A' for Active; 'I' for Inactive)
REMARK    1  A    between atoms: PA_1  and  O5'_5 
REMARK    2  A    between atoms: PA_1  and  O3A_24 
REMARK    3  A    between atoms: PB_2  and  N3B_23 
REMARK    4  A    between atoms: PB_2  and  O3A_24 
REMARK    5  A    between atoms: PG_3  and  N3B_23 
REMARK    6  A    between atoms: C5'_4  and  O5'_5 
REMARK    7  A    between atoms: C5'_4  and  C4'_6 
REMARK    8  A    between atoms: C1'_12  and  N9_32 
ROOT
HETATM    1  C4' GNP A 200       2.406  47.724  17.143  1.00 11.60     0.181 C 
HETATM    2  O4' GNP A 200       1.258  48.591  17.410  1.00 10.96    -0.331 OA
HETATM    3  C3' GNP A 200       3.351  48.544  16.251  1.00 12.08     0.216 C 
HETATM    4  O3' GNP A 200       2.981  48.301  14.870  1.00 14.40    -0.218 OA
HETATM    5  C2' GNP A 200       2.993  50.012  16.642  1.00 12.17     0.234 C 
HETATM    6  O2' GNP A 200       3.164  50.997  15.586  1.00 13.60    -0.216 OA
HETATM    7  C1' GNP A 200       1.469  49.919  16.861  1.00 11.60     0.241 C 
ENDROOT
BRANCH   1   8
HETATM    8  C5' GNP A 200       3.026  47.244  18.391  1.00 10.62     0.187 C 
BRANCH   8   9
HETATM    9  O5' GNP A 200       4.049  46.253  18.137  1.00  9.72    -0.268 OA
BRANCH   9  10
HETATM   10  PA  GNP A 200       3.858  44.794  18.547  1.00 10.32     0.418 P 
HETATM   11  O1A GNP A 200       2.411  44.364  18.291  1.00  9.87    -0.624 OA
HETATM   12  O2A GNP A 200       4.459  44.533  19.913  1.00 11.09    -0.624 OA
BRANCH  10  13
HETATM   13  O3A GNP A 200       4.855  44.001  17.439  1.00  9.21    -0.185 OA
BRANCH  13  14
HETATM   14  PB  GNP A 200       4.812  44.079  15.889  1.00  8.42     0.401 P 
HETATM   15  O1B GNP A 200       3.367  43.995  15.600  1.00  8.14    -0.628 OA
HETATM   16  O2B GNP A 200       5.667  43.099  15.305  1.00  8.71    -0.628 OA
BRANCH  14  17
HETATM   17  N3B GNP A 200       5.355  45.721  15.530  1.00  9.58    -0.091 NA
BRANCH  17  18
HETATM   18  PG  GNP A 200       6.378  46.088  14.335  1.00  9.51     0.404 P 
HETATM   19  O1G GNP A 200       5.886  45.402  13.037  1.00 10.72    -0.621 OA
HETATM   20  O2G GNP A 200       7.695  45.731  14.692  1.00 10.01    -0.621 OA
HETATM   21  O3G GNP A 200       6.224  47.630  14.222  1.00 11.72    -0.621 OA
ENDBRANCH  17  18
ENDBRANCH  14  17
ENDBRANCH  13  14
ENDBRANCH  10  13
ENDBRANCH   9  10
ENDBRANCH   8   9
ENDBRANCH   1   8
BRANCH   7  22
HETATM   22  N9  GNP A 200       0.838  50.905  17.809  1.00  9.54    -0.269 N 
HETATM   23  C4  GNP A 200       1.280  51.224  19.000  1.00  9.54     0.187 A 
HETATM   24  N3  GNP A 200       2.354  50.831  19.652  1.00 10.76    -0.039 NA
HETATM   25  C5  GNP A 200       0.254  52.092  19.449  1.00  8.26     0.162 A 
HETATM   26  C2  GNP A 200       2.581  51.273  20.783  1.00  9.86     0.772 A 
HETATM   27  N1  GNP A 200       1.647  52.229  21.432  1.00 10.22    -0.029 NA
HETATM   28  N2  GNP A 200       3.556  51.050  21.603  1.00 11.49     0.062 N 
HETATM   29  C6  GNP A 200       0.560  52.573  20.748  1.00 10.19     0.251 A 
HETATM   30  O6  GNP A 200      -0.311  53.423  21.356  1.00 11.17    -0.167 OA
HETATM   31  N7  GNP A 200      -0.654  52.231  18.543  1.00  8.86    -0.219 NA
HETATM   32  C8  GNP A 200      -0.391  51.497  17.442  1.00 11.92     0.182 A 
ENDBRANCH   7  22
TORSDOF 8
ENDMDL
MODEL 4
REMARK VINA RESULT:    -7.136      4.479      8.231
REMARK INTER + INTRA:         -11.336
REMARK INTER:                 -10.483
REMARK INTRA:                  -0.854
REMARK UNBOUND:                -0.863
REMARK  8 active torsions:
REMARK  status: ('A' for Active; 'I' for Inactive)
REMARK    1  A    between atoms: PA_1  and  O5'_5 
REMARK    2  A    between atoms: PA_1  and  O3A_24 
REMARK    3  A    between atoms: PB_2  and  N3B_23 
REMARK    4  A    between atoms: PB_2  and  O3A_24 
REMARK    5  A    between atoms: PG_3  and  N3B_23 
REMARK    6  A    between atoms: C5'_4  and  O5'_5 
REMARK    7  A    between atoms: C5'_4  and  C4'_6 
REMARK    8  A    between atoms: C1'_12  and  N9_32 
ROOT
HETATM    1  C4' GNP A 200       1.520  49.657  18.549  1.00 11.60     0.181 C 
HETATM    2  O4' GNP A 200       2.577  48.646  18.587  1.00 10.96    -0.331 OA
HETATM    3  C3' GNP A 200       1.423  50.107  17.083  1.00 12.08     0.216 C 
HETATM    4  O3' GNP A 200       2.342  51.212  16.895  1.00 14.40    -0.218 OA
HETATM    5  C2' GNP A 200       1.944  48.853  16.312  1.00 12.17     0.234 C 
HETATM    6  O2' GNP A 200       2.611  49.131  15.049  1.00 13.60    -0.216 OA
HETATM    7  C1' GNP A 200       3.057  48.344  17.250  1.00 11.60     0.241 C 
ENDROOT
BRANCH   1   8
HETATM    8  C5' GNP A 200       0.255  49.141  19.102  1.00 10.62     0.187 C 
BRANCH   8   9
HETATM    9  O5' GNP A 200      -0.587  48.568  18.075  1.00  9.72    -0.268 OA
BRANCH   9  10
HETATM   10  PA  GNP A 200      -2.108  48.541  18.220  1.00 10.32     0.418 P 
HETATM   11  O1A GNP A 200      -2.705  49.854  17.705  1.00  9.87    -0.624 OA
HETATM   12  O2A GNP A 200      -2.512  48.054  19.597  1.00 11.09    -0.624 OA
BRANCH  10  13
HETATM   13  O3A GNP A 200      -2.526  47.307  17.146  1.00  9.21    -0.185 OA
BRANCH  13  14
HETATM   14  PB  GNP A 200      -3.825  46.456  17.127  1.00  8.42     0.401 P 
HETATM   15  O1B GNP A 200      -4.885  47.483  17.170  1.00  8.14    -0.628 OA
HETATM   16  O2B GNP A 200      -3.806  45.473  18.158  1.00  8.71    -0.628 OA
BRANCH  14  17
HETATM   17  N3B GNP A 200      -3.829  45.724  15.519  1.00  9.58    -0.091 NA
BRANCH  17  18
HETATM   18  PG  GNP A 200      -5.097  44.944  14.892  1.00  9.51     0.404 P 
HETATM   19  O1G GNP A 200      -5.921  45.944  14.045  1.00 10.72    -0.621 OA
HETATM   20  O2G GNP A 200      -5.847  44.327  15.915  1.00 10.01    -0.621 OA
HETATM   21  O3G GNP A 200      -4.422  43.888  13.974  1.00 11.72    -0.621 OA
ENDBRANCH  17  18
ENDBRANCH  14  17
ENDBRANCH  13  14
ENDBRANCH  10  13
ENDBRANCH   9  10
ENDBRANCH   8   9
ENDBRANCH   1   8
BRANCH   7  22
HETATM   22  N9  GNP A 200       3.387  46.874  17.210  1.00  9.54    -0.269 N 
HETATM   23  C4  GNP A 200       4.083  46.263  16.283  1.00  9.54     0.187 A 
HETATM   24  N3  GNP A 200       4.688  46.734  15.212  1.00 10.76    -0.039 NA
HETATM   25  C5  GNP A 200       3.981  44.916  16.708  1.00  8.26     0.162 A 
HETATM   26  C2  GNP A 200       5.301  45.963  14.467  1.00  9.86     0.772 A 
HETATM   27  N1  GNP A 200       5.351  44.504  14.748  1.00 10.22    -0.029 NA
HETATM   28  N2  GNP A 200       5.971  46.182  13.382  1.00 11.49     0.062 N 
HETATM   29  C6  GNP A 200       4.700  44.072  15.824  1.00 10.19     0.251 A 
HETATM   30  O6  GNP A 200       4.719  42.733  16.063  1.00 11.17    -0.167 OA
HETATM   31  N7  GNP A 200       3.291  44.833  17.796  1.00  8.86    -0.219 NA
HETATM   32  C8  GNP A 200       2.842  46.036  18.207  1.00 11.92     0.182 A 
ENDBRANCH   7  22
TORSDOF 8
ENDMDL
MODEL 5
REMARK VINA RESULT:    -6.927      4.784      7.898
REMARK INTER + INTRA:         -11.029
REMARK INTER:                 -10.685
REMARK INTRA:                  -0.344
REMARK UNBOUND:                -0.863
REMARK  8 active torsions:
REMARK  status: ('A' for Active; 'I' for Inactive)
REMARK    1  A    between atoms: PA_1  and  O5'_5 
REMARK    2  A    between atoms: PA_1  and  O3A_24 
REMARK    3  A    between atoms: PB_2  and  N3B_23 
REMARK    4  A    between atoms: PB_2  and  O3A_24 
REMARK    5  A    between atoms: PG_3  and  N3B_23 
REMARK    6  A    between atoms: C5'_4  and  O5'_5 
REMARK    7  A    between atoms: C5'_4  and  C4'_6 
REMARK    8  A    between atoms: C1'_12  and  N9_32 
ROOT
HETATM    1  C4' GNP A 200       1.100  49.116  18.457  1.00 11.60     0.181 C 
HETATM    2  O4' GNP A 200       2.189  48.139  18.429  1.00 10.96    -0.331 OA
HETATM    3  C3' GNP A 200       1.479  50.195  17.430  1.00 12.08     0.216 C 
HETATM    4  O3' GNP A 200       2.261  51.205  18.115  1.00 14.40    -0.218 OA
HETATM    5  C2' GNP A 200       2.389  49.408  16.436  1.00 12.17     0.234 C 
HETATM    6  O2' GNP A 200       3.423  50.195  15.782  1.00 13.60    -0.216 OA
HETATM    7  C1' GNP A 200       3.148  48.458  17.385  1.00 11.60     0.241 C 
ENDROOT
BRANCH   1   8
HETATM    8  C5' GNP A 200      -0.206  48.481  18.204  1.00 10.62     0.187 C 
BRANCH   8   9
HETATM    9  O5' GNP A 200      -0.967  49.195  17.203  1.00  9.72    -0.268 OA
BRANCH   9  10
HETATM   10  PA  GNP A 200      -2.495  49.201  17.222  1.00 10.32     0.418 P 
HETATM   11  O1A GNP A 200      -3.024  50.329  16.331  1.00  9.87    -0.624 OA
HETATM   12  O2A GNP A 200      -3.019  49.091  18.639  1.00 11.09    -0.624 OA
BRANCH  10  13
HETATM   13  O3A GNP A 200      -2.844  47.725  16.479  1.00  9.21    -0.185 OA
BRANCH  13  14
HETATM   14  PB  GNP A 200      -3.859  47.447  15.337  1.00  8.42     0.401 P 
HETATM   15  O1B GNP A 200      -3.211  48.074  14.167  1.00  8.14    -0.628 OA
HETATM   16  O2B GNP A 200      -5.164  47.894  15.694  1.00  8.71    -0.628 OA
BRANCH  14  17
HETATM   17  N3B GNP A 200      -3.797  45.694  15.131  1.00  9.58    -0.091 NA
BRANCH  17  18
HETATM   18  PG  GNP A 200      -4.311  44.928  13.805  1.00  9.51     0.404 P 
HETATM   19  O1G GNP A 200      -4.928  43.572  14.226  1.00 10.72    -0.621 OA
HETATM   20  O2G GNP A 200      -3.257  44.798  12.876  1.00 10.01    -0.621 OA
HETATM   21  O3G GNP A 200      -5.416  45.881  13.272  1.00 11.72    -0.621 OA
ENDBRANCH  17  18
ENDBRANCH  14  17
ENDBRANCH  13  14
ENDBRANCH  10  13
ENDBRANCH   9  10
ENDBRANCH   8   9
ENDBRANCH   1   8
BRANCH   7  22
HETATM   22  N9  GNP A 200       3.648  47.155  16.818  1.00  9.54    -0.269 N 
HETATM   23  C4  GNP A 200       3.806  46.035  17.478  1.00  9.54     0.187 A 
HETATM   24  N3  GNP A 200       3.551  45.735  18.735  1.00 10.76    -0.039 NA
HETATM   25  C5  GNP A 200       4.382  45.209  16.482  1.00  8.26     0.162 A 
HETATM   26  C2  GNP A 200       3.777  44.593  19.150  1.00  9.86     0.772 A 
HETATM   27  N1  GNP A 200       4.353  43.554  18.257  1.00 10.22    -0.029 NA
HETATM   28  N2  GNP A 200       3.605  44.063  20.318  1.00 11.49     0.062 N 
HETATM   29  C6  GNP A 200       4.621  43.912  17.005  1.00 10.19     0.251 A 
HETATM   30  O6  GNP A 200       5.178  42.970  16.197  1.00 11.17    -0.167 OA
HETATM   31  N7  GNP A 200       4.500  45.852  15.370  1.00  8.86    -0.219 NA
HETATM   32  C8  GNP A 200       4.071  47.127  15.471  1.00 11.92     0.182 A 
ENDBRANCH   7  22
TORSDOF 8
ENDMDL
MODEL 6
REMARK VINA RESULT:    -6.919      4.911      7.565
REMARK INTER + INTRA:         -11.018
REMARK INTER:                 -10.132
REMARK INTRA:                  -0.886
REMARK UNBOUND:                -0.863
REMARK  8 active torsions:
REMARK  status: ('A' for Active; 'I' for Inactive)
REMARK    1  A    between atoms: PA_1  and  O5'_5 
REMARK    2  A    between atoms: PA_1  and  O3A_24 
REMARK    3  A    between atoms: PB_2  and  N3B_23 
REMARK    4  A    between atoms: PB_2  and  O3A_24 
REMARK    5  A    between atoms: PG_3  and  N3B_23 
REMARK    6  A    between atoms: C5'_4  and  O5'_5 
REMARK    7  A    between atoms: C5'_4  and  C4'_6 
REMARK    8  A    between atoms: C1'_12  and  N9_32 
ROOT
HETATM    1  C4' GNP A 200      -0.570  48.919  18.693  1.00 11.60     0.181 C 
HETATM    2  O4' GNP A 200       0.620  48.081  18.548  1.00 10.96    -0.331 OA
HETATM    3  C3' GNP A 200      -0.075  50.371  18.594  1.00 12.08     0.216 C 
HETATM    4  O3' GNP A 200       0.271  50.815  19.930  1.00 14.40    -0.218 OA
HETATM    5  C2' GNP A 200       1.220  50.226  17.735  1.00 12.17     0.234 C 
HETATM    6  O2' GNP A 200       2.260  51.207  18.004  1.00 13.60    -0.216 OA
HETATM    7  C1' GNP A 200       1.791  48.886  18.244  1.00 11.60     0.241 C 
ENDROOT
BRANCH   1   8
HETATM    8  C5' GNP A 200      -1.605  48.570  17.703  1.00 10.62     0.187 C 
BRANCH   8   9
HETATM    9  O5' GNP A 200      -1.905  47.155  17.716  1.00  9.72    -0.268 OA
BRANCH   9  10
HETATM   10  PA  GNP A 200      -3.336  46.647  17.550  1.00 10.32     0.418 P 
HETATM   11  O1A GNP A 200      -4.326  47.801  17.741  1.00  9.87    -0.624 OA
HETATM   12  O2A GNP A 200      -3.552  45.371  18.339  1.00 11.09    -0.624 OA
BRANCH  10  13
HETATM   13  O3A GNP A 200      -3.347  46.197  15.923  1.00  9.21    -0.185 OA
BRANCH  13  14
HETATM   14  PB  GNP A 200      -4.570  45.821  15.043  1.00  8.42     0.401 P 
HETATM   15  O1B GNP A 200      -5.181  47.134  14.759  1.00  8.14    -0.628 OA
HETATM   16  O2B GNP A 200      -5.376  44.836  15.685  1.00  8.71    -0.628 OA
BRANCH  14  17
HETATM   17  N3B GNP A 200      -3.849  45.210  13.551  1.00  9.58    -0.091 NA
BRANCH  17  18
HETATM   18  PG  GNP A 200      -3.588  46.120  12.243  1.00  9.51     0.404 P 
HETATM   19  O1G GNP A 200      -2.665  47.300  12.637  1.00 10.72    -0.621 OA
HETATM   20  O2G GNP A 200      -4.815  46.534  11.682  1.00 10.01    -0.621 OA
HETATM   21  O3G GNP A 200      -2.839  45.142  11.296  1.00 11.72    -0.621 OA
ENDBRANCH  17  18
ENDBRANCH  14  17
ENDBRANCH  13  14
ENDBRANCH  10  13
ENDBRANCH   9  10
ENDBRANCH   8   9
ENDBRANCH   1   8
BRANCH   7  22
HETATM   22  N9  GNP A 200       2.655  48.090  17.302  1.00  9.54    -0.269 N 
HETATM   23  C4  GNP A 200       3.309  46.993  17.593  1.00  9.54     0.187 A 
HETATM   24  N3  GNP A 200       3.364  46.296  18.709  1.00 10.76    -0.039 NA
HETATM   25  C5  GNP A 200       4.005  46.760  16.382  1.00  8.26     0.162 A 
HETATM   26  C2  GNP A 200       4.054  45.272  18.758  1.00  9.86     0.772 A 
HETATM   27  N1  GNP A 200       4.843  44.824  17.581  1.00 10.22    -0.029 NA
HETATM   28  N2  GNP A 200       4.257  44.429  19.718  1.00 11.49     0.062 N 
HETATM   29  C6  GNP A 200       4.780  45.577  16.487  1.00 10.19     0.251 A 
HETATM   30  O6  GNP A 200       5.528  45.184  15.421  1.00 11.17    -0.167 OA
HETATM   31  N7  GNP A 200       3.718  47.667  15.510  1.00  8.86    -0.219 NA
HETATM   32  C8  GNP A 200       2.864  48.590  15.997  1.00 11.92     0.182 A 
ENDBRANCH   7  22
TORSDOF 8
ENDMDL
MODEL 7
REMARK VINA RESULT:    -6.881      5.105      8.229
REMARK INTER + INTRA:         -10.962
REMARK INTER:                 -10.160
REMARK INTRA:                  -0.803
REMARK UNBOUND:                -0.863
REMARK  8 active torsions:
REMARK  status: ('A' for Active; 'I' for Inactive)
REMARK    1  A    between atoms: PA_1  and  O5'_5 
REMARK    2  A    between atoms: PA_1  and  O3A_24 
REMARK    3  A    between atoms: PB_2  and  N3B_23 
REMARK    4  A    between atoms: PB_2  and  O3A_24 
REMARK    5  A    between atoms: PG_3  and  N3B_23 
REMARK    6  A    between atoms: C5'_4  and  O5'_5 
REMARK    7  A    between atoms: C5'_4  and  C4'_6 
REMARK    8  A    between atoms: C1'_12  and  N9_32 
ROOT
HETATM    1  C4' GNP A 200      -0.140  48.993  18.635  1.00 11.60     0.181 C 
HETATM    2  O4' GNP A 200       0.984  48.085  18.406  1.00 10.96    -0.331 OA
HETATM    3  C3' GNP A 200       0.455  50.409  18.614  1.00 12.08     0.216 C 
HETATM    4  O3' GNP A 200       0.862  50.741  19.965  1.00 14.40    -0.218 OA
HETATM    5  C2' GNP A 200       1.718  50.230  17.713  1.00 12.17     0.234 C 
HETATM    6  O2' GNP A 200       2.830  51.117  18.016  1.00 13.60    -0.216 OA
HETATM    7  C1' GNP A 200       2.202  48.824  18.122  1.00 11.60     0.241 C 
ENDROOT
BRANCH   1   8
HETATM    8  C5' GNP A 200      -1.219  48.781  17.653  1.00 10.62     0.187 C 
BRANCH   8   9
HETATM    9  O5' GNP A 200      -1.738  47.433  17.707  1.00  9.72    -0.268 OA
BRANCH   9  10
HETATM   10  PA  GNP A 200      -3.237  47.155  17.599  1.00 10.32     0.418 P 
HETATM   11  O1A GNP A 200      -3.974  48.428  17.173  1.00  9.87    -0.624 OA
HETATM   12  O2A GNP A 200      -3.737  46.403  18.816  1.00 11.09    -0.624 OA
BRANCH  10  13
HETATM   13  O3A GNP A 200      -3.283  46.056  16.319  1.00  9.21    -0.185 OA
BRANCH  13  14
HETATM   14  PB  GNP A 200      -3.988  46.219  14.944  1.00  8.42     0.401 P 
HETATM   15  O1B GNP A 200      -3.614  44.977  14.239  1.00  8.14    -0.628 OA
HETATM   16  O2B GNP A 200      -3.640  47.461  14.337  1.00  8.71    -0.628 OA
BRANCH  14  17
HETATM   17  N3B GNP A 200      -5.708  46.138  15.336  1.00  9.58    -0.091 NA
BRANCH  17  18
HETATM   18  PG  GNP A 200      -6.579  44.779  15.273  1.00  9.51     0.404 P 
HETATM   19  O1G GNP A 200      -5.927  43.731  16.207  1.00 10.72    -0.621 OA
HETATM   20  O2G GNP A 200      -6.703  44.339  13.938  1.00 10.01    -0.621 OA
HETATM   21  O3G GNP A 200      -7.951  45.232  15.845  1.00 11.72    -0.621 OA
ENDBRANCH  17  18
ENDBRANCH  14  17
ENDBRANCH  13  14
ENDBRANCH  10  13
ENDBRANCH   9  10
ENDBRANCH   8   9
ENDBRANCH   1   8
BRANCH   7  22
HETATM   22  N9  GNP A 200       2.986  48.032  17.109  1.00  9.54    -0.269 N 
HETATM   23  C4  GNP A 200       3.627  46.912  17.332  1.00  9.54     0.187 A 
HETATM   24  N3  GNP A 200       3.731  46.184  18.424  1.00 10.76    -0.039 NA
HETATM   25  C5  GNP A 200       4.243  46.694  16.075  1.00  8.26     0.162 A 
HETATM   26  C2  GNP A 200       4.396  45.143  18.406  1.00  9.86     0.772 A 
HETATM   27  N1  GNP A 200       5.101  44.707  17.172  1.00 10.22    -0.029 NA
HETATM   28  N2  GNP A 200       4.635  44.269  19.329  1.00 11.49     0.062 N 
HETATM   29  C6  GNP A 200       4.991  45.490  16.103  1.00 10.19     0.251 A 
HETATM   30  O6  GNP A 200       5.662  45.107  14.983  1.00 11.17    -0.167 OA
HETATM   31  N7  GNP A 200       3.927  47.631  15.245  1.00  8.86    -0.219 NA
HETATM   32  C8  GNP A 200       3.129  48.561  15.807  1.00 11.92     0.182 A 
ENDBRANCH   7  22
TORSDOF 8
ENDMDL
MODEL 8
REMARK VINA RESULT:    -6.637      4.959      8.399
REMARK INTER + INTRA:         -10.603
REMARK INTER:                  -9.838
REMARK INTRA:                  -0.765
REMARK UNBOUND:                -0.863
REMARK  8 active torsions:
REMARK  status: ('A' for Active; 'I' for Inactive)
REMARK    1  A    between atoms: PA_1  and  O5'_5 
REMARK    2  A    between atoms: PA_1  and  O3A_24 
REMARK    3  A    between atoms: PB_2  and  N3B_23 
REMARK    4  A    between atoms: PB_2  and  O3A_24 
REMARK    5  A    between atoms: PG_3  and  N3B_23 
REMARK    6  A    between atoms: C5'_4  and  O5'_5 
REMARK    7  A    between atoms: C5'_4  and  C4'_6 
REMARK    8  A    between atoms: C1'_12  and  N9_32 
ROOT
HETATM    1  C4' GNP A 200       0.045  49.207  18.764  1.00 11.60     0.181 C 
HETATM    2  O4' GNP A 200       1.172  48.299  18.547  1.00 10.96    -0.331 OA
HETATM    3  C3' GNP A 200       0.601  50.623  18.547  1.00 12.08     0.216 C 
HETATM    4  O3' GNP A 200       1.098  51.105  19.821  1.00 14.40    -0.218 OA
HETATM    5  C2' GNP A 200       1.797  50.370  17.577  1.00 12.17     0.234 C 
HETATM    6  O2' GNP A 200       2.906  51.303  17.699  1.00 13.60    -0.216 OA
HETATM    7  C1' GNP A 200       2.346  49.025  18.095  1.00 11.60     0.241 C 
ENDROOT
BRANCH   1   8
HETATM    8  C5' GNP A 200      -1.097  48.872  17.895  1.00 10.62     0.187 C 
BRANCH   8   9
HETATM    9  O5' GNP A 200      -1.710  47.617  18.272  1.00  9.72    -0.268 OA
BRANCH   9  10
HETATM   10  PA  GNP A 200      -2.949  47.091  17.549  1.00 10.32     0.418 P 
HETATM   11  O1A GNP A 200      -2.609  45.796  16.805  1.00  9.87    -0.624 OA
HETATM   12  O2A GNP A 200      -3.644  48.201  16.788  1.00 11.09    -0.624 OA
BRANCH  10  13
HETATM   13  O3A GNP A 200      -3.959  46.711  18.848  1.00  9.21    -0.185 OA
BRANCH  13  14
HETATM   14  PB  GNP A 200      -5.068  45.626  18.911  1.00  8.42     0.401 P 
HETATM   15  O1B GNP A 200      -5.721  45.905  20.205  1.00  8.14    -0.628 OA
HETATM   16  O2B GNP A 200      -4.522  44.326  18.706  1.00  8.71    -0.628 OA
BRANCH  14  17
HETATM   17  N3B GNP A 200      -6.183  46.082  17.619  1.00  9.58    -0.091 NA
BRANCH  17  18
HETATM   18  PG  GNP A 200      -6.507  45.148  16.342  1.00  9.51     0.404 P 
HETATM   19  O1G GNP A 200      -7.259  43.886  16.832  1.00 10.72    -0.621 OA
HETATM   20  O2G GNP A 200      -5.321  44.853  15.637  1.00 10.01    -0.621 OA
HETATM   21  O3G GNP A 200      -7.454  46.046  15.499  1.00 11.72    -0.621 OA
ENDBRANCH  17  18
ENDBRANCH  14  17
ENDBRANCH  13  14
ENDBRANCH  10  13
ENDBRANCH   9  10
ENDBRANCH   8   9
ENDBRANCH   1   8
BRANCH   7  22
HETATM   22  N9  GNP A 200       3.073  48.141  17.115  1.00  9.54    -0.269 N 
HETATM   23  C4  GNP A 200       3.635  46.989  17.382  1.00  9.54     0.187 A 
HETATM   24  N3  GNP A 200       3.687  46.297  18.502  1.00 10.76    -0.039 NA
HETATM   25  C5  GNP A 200       4.234  46.681  16.136  1.00  8.26     0.162 A 
HETATM   26  C2  GNP A 200       4.277  45.212  18.524  1.00  9.86     0.772 A 
HETATM   27  N1  GNP A 200       4.950  44.681  17.310  1.00 10.22    -0.029 NA
HETATM   28  N2  GNP A 200       4.454  44.360  19.481  1.00 11.49     0.062 N 
HETATM   29  C6  GNP A 200       4.896  45.429  16.212  1.00 10.19     0.251 A 
HETATM   30  O6  GNP A 200       5.539  44.958  15.110  1.00 11.17    -0.167 OA
HETATM   31  N7  GNP A 200       3.985  47.605  15.270  1.00  8.86    -0.219 NA
HETATM   32  C8  GNP A 200       3.253  48.609  15.794  1.00 11.92     0.182 A 
ENDBRANCH   7  22
TORSDOF 8
ENDMDL
MODEL 9
REMARK VINA RESULT:    -6.481      4.422      7.462
REMARK INTER + INTRA:         -10.374
REMARK INTER:                  -9.241
REMARK INTRA:                  -1.133
REMARK UNBOUND:                -0.863
REMARK  8 active torsions:
REMARK  status: ('A' for Active; 'I' for Inactive)
REMARK    1  A    between atoms: PA_1  and  O5'_5 
REMARK    2  A    between atoms: PA_1  and  O3A_24 
REMARK    3  A    between atoms: PB_2  and  N3B_23 
REMARK    4  A    between atoms: PB_2  and  O3A_24 
REMARK    5  A    between atoms: PG_3  and  N3B_23 
REMARK    6  A    between atoms: C5'_4  and  O5'_5 
REMARK    7  A    between atoms: C5'_4  and  C4'_6 
REMARK    8  A    between atoms: C1'_12  and  N9_32 
ROOT
HETATM    1  C4' GNP A 200      -0.192  50.150  17.924  1.00 11.60     0.181 C 
HETATM    2  O4' GNP A 200       0.419  48.874  17.553  1.00 10.96    -0.331 OA
HETATM    3  C3' GNP A 200       0.673  50.714  19.062  1.00 12.08     0.216 C 
HETATM    4  O3' GNP A 200       0.140  50.216  20.314  1.00 14.40    -0.218 OA
HETATM    5  C2' GNP A 200       2.063  50.059  18.783  1.00 12.17     0.234 C 
HETATM    6  O2' GNP A 200       2.884  49.817  19.959  1.00 13.60    -0.216 OA
HETATM    7  C1' GNP A 200       1.658  48.659  18.280  1.00 11.60     0.241 C 
ENDROOT
BRANCH   1   8
HETATM    8  C5' GNP A 200      -0.316  51.051  16.763  1.00 10.62     0.187 C 
BRANCH   8   9
HETATM    9  O5' GNP A 200      -0.051  50.363  15.519  1.00  9.72    -0.268 OA
BRANCH   9  10
HETATM   10  PA  GNP A 200      -0.720  50.796  14.215  1.00 10.32     0.418 P 
HETATM   11  O1A GNP A 200      -1.519  52.083  14.441  1.00  9.87    -0.624 OA
HETATM   12  O2A GNP A 200      -1.410  49.624  13.547  1.00 11.09    -0.624 OA
BRANCH  10  13
HETATM   13  O3A GNP A 200       0.620  51.160  13.255  1.00  9.21    -0.185 OA
BRANCH  13  14
HETATM   14  PB  GNP A 200       0.638  51.829  11.853  1.00  8.42     0.401 P 
HETATM   15  O1B GNP A 200       1.261  53.139  12.127  1.00  8.14    -0.628 OA
HETATM   16  O2B GNP A 200      -0.661  51.819  11.267  1.00  8.71    -0.628 OA
BRANCH  14  17
HETATM   17  N3B GNP A 200       1.784  50.852  10.930  1.00  9.58    -0.091 NA
BRANCH  17  18
HETATM   18  PG  GNP A 200       1.378  49.980   9.633  1.00  9.51     0.404 P 
HETATM   19  O1G GNP A 200       0.205  49.044  10.013  1.00 10.72    -0.621 OA
HETATM   20  O2G GNP A 200       2.504  49.291   9.135  1.00 10.01    -0.621 OA
HETATM   21  O3G GNP A 200       0.898  51.068   8.633  1.00 11.72    -0.621 OA
ENDBRANCH  17  18
ENDBRANCH  14  17
ENDBRANCH  13  14
ENDBRANCH  10  13
ENDBRANCH   9  10
ENDBRANCH   8   9
ENDBRANCH   1   8
BRANCH   7  22
HETATM   22  N9  GNP A 200       2.608  47.947  17.353  1.00  9.54    -0.269 N 
HETATM   23  C4  GNP A 200       3.296  46.868  17.630  1.00  9.54     0.187 A 
HETATM   24  N3  GNP A 200       3.323  46.121  18.715  1.00 10.76    -0.039 NA
HETATM   25  C5  GNP A 200       4.068  46.724  16.451  1.00  8.26     0.162 A 
HETATM   26  C2  GNP A 200       4.056  45.128  18.757  1.00  9.86     0.772 A 
HETATM   27  N1  GNP A 200       4.929  44.772  17.607  1.00 10.22    -0.029 NA
HETATM   28  N2  GNP A 200       4.246  44.249  19.687  1.00 11.49     0.062 N 
HETATM   29  C6  GNP A 200       4.890  45.572  16.547  1.00 10.19     0.251 A 
HETATM   30  O6  GNP A 200       5.712  45.264  15.508  1.00 11.17    -0.167 OA
HETATM   31  N7  GNP A 200       3.786  47.658  15.606  1.00  8.86    -0.219 NA
HETATM   32  C8  GNP A 200       2.864  48.517  16.086  1.00 11.92     0.182 A 
ENDBRANCH   7  22
TORSDOF 8
ENDMDL
