MODEL 1
REMARK VINA RESULT:    -8.777      0.000      0.000
REMARK INTER + INTRA:         -13.264
REMARK INTER:                 -12.882
REMARK INTRA:                  -0.381
REMARK UNBOUND:                -0.381
REMARK  8 active torsions:
REMARK  status: ('A' for Active; 'I' for Inactive)
REMARK    1  A    between atoms: PA_1  and  O5'_5 
REMARK    2  A    between atoms: PA_1  and  O3A_24 
REMARK    3  A    between atoms: PB_2  and  N3B_23 
REMARK    4  A    between atoms: PB_2  and  O3A_24 
REMARK    5  A    between atoms: PG_3  and  N3B_23 
REMARK    6  A    between atoms: C5'_4  and  O5'_5 
REMARK    7  A    between atoms: C5'_4  and  C4'_6 
REMARK    8  A    between atoms: C1'_12  and  N9_32 
ROOT
HETATM    1  C4' GNP A 200       5.405  43.199  21.219  1.00 11.60     0.181 C 
HETATM    2  O4' GNP A 200       6.734  42.756  21.642  1.00 10.96    -0.331 OA
HETATM    3  C3' GNP A 200       4.873  44.080  22.360  1.00 12.08     0.216 C 
HETATM    4  O3' GNP A 200       4.173  43.221  23.295  1.00 14.40    -0.218 OA
HETATM    5  C2' GNP A 200       6.187  44.611  23.014  1.00 12.17     0.234 C 
HETATM    6  O2' GNP A 200       6.106  44.885  24.441  1.00 13.60    -0.216 OA
HETATM    7  C1' GNP A 200       7.119  43.388  22.892  1.00 11.60     0.241 C 
ENDROOT
BRANCH   1   8
HETATM    8  C5' GNP A 200       5.449  43.876  19.910  1.00 10.62     0.187 C 
BRANCH   8   9
HETATM    9  O5' GNP A 200       4.256  43.622  19.133  1.00  9.72    -0.268 OA
BRANCH   9  10
HETATM   10  PA  GNP A 200       3.854  44.536  17.976  1.00 10.32     0.418 P 
HETATM   11  O1A GNP A 200       4.930  45.602  17.755  1.00  9.87    -0.624 OA
HETATM   12  O2A GNP A 200       2.412  44.980  18.114  1.00 11.09    -0.624 OA
BRANCH  10  13
HETATM   13  O3A GNP A 200       3.889  43.462  16.673  1.00  9.21    -0.185 OA
BRANCH  13  14
HETATM   14  PB  GNP A 200       4.544  43.671  15.280  1.00  8.42     0.401 P 
HETATM   15  O1B GNP A 200       3.487  43.217  14.354  1.00  8.14    -0.628 OA
HETATM   16  O2B GNP A 200       5.813  43.026  15.211  1.00  8.71    -0.628 OA
BRANCH  14  17
HETATM   17  N3B GNP A 200       4.689  45.426  15.137  1.00  9.58    -0.091 NA
BRANCH  17  18
HETATM   18  PG  GNP A 200       5.823  46.163  14.255  1.00  9.51     0.404 P 
HETATM   19  O1G GNP A 200       5.471  47.668  14.157  1.00 10.72    -0.621 OA
HETATM   20  O2G GNP A 200       5.949  45.536  12.997  1.00 10.01    -0.621 OA
HETATM   21  O3G GNP A 200       7.101  45.963  15.114  1.00 11.72    -0.621 OA
ENDBRANCH  17  18
ENDBRANCH  14  17
ENDBRANCH  13  14
ENDBRANCH  10  13
ENDBRANCH   9  10
ENDBRANCH   8   9
ENDBRANCH   1   8
BRANCH   7  22
HETATM   22  N9  GNP A 200       8.602  43.643  22.831  1.00  9.54    -0.269 N 
HETATM   23  C4  GNP A 200       9.480  43.321  23.748  1.00  9.54     0.187 A 
HETATM   24  N3  GNP A 200       9.333  42.687  24.894  1.00 10.76    -0.039 NA
HETATM   25  C5  GNP A 200      10.662  43.883  23.206  1.00  8.26     0.162 A 
HETATM   26  C2  GNP A 200      10.318  42.484  25.612  1.00  9.86     0.772 A 
HETATM   27  N1  GNP A 200      11.667  42.962  25.214  1.00 10.22    -0.029 NA
HETATM   28  N2  GNP A 200      10.429  41.887  26.754  1.00 11.49     0.062 N 
HETATM   29  C6  GNP A 200      11.761  43.623  24.064  1.00 10.19     0.251 A 
HETATM   30  O6  GNP A 200      12.990  44.089  23.716  1.00 11.17    -0.167 OA
HETATM   31  N7  GNP A 200      10.418  44.447  22.071  1.00  8.86    -0.219 NA
HETATM   32  C8  GNP A 200       9.115  44.367  21.732  1.00 11.92     0.182 A 
ENDBRANCH   7  22
TORSDOF 8
ENDMDL
MODEL 2
REMARK VINA RESULT:    -7.900      6.810      8.174
REMARK INTER + INTRA:         -11.976
REMARK INTER:                 -11.405
REMARK INTRA:                  -0.571
REMARK UNBOUND:                -0.381
REMARK  8 active torsions:
REMARK  status: ('A' for Active; 'I' for Inactive)
REMARK    1  A    between atoms: PA_1  and  O5'_5 
REMARK    2  A    between atoms: PA_1  and  O3A_24 
REMARK    3  A    between atoms: PB_2  and  N3B_23 
REMARK    4  A    between atoms: PB_2  and  O3A_24 
REMARK    5  A    between atoms: PG_3  and  N3B_23 
REMARK    6  A    between atoms: C5'_4  and  O5'_5 
REMARK    7  A    between atoms: C5'_4  and  C4'_6 
REMARK    8  A    between atoms: C1'_12  and  N9_32 
ROOT
HETATM    1  C4' GNP A 200       2.017  47.691  18.253  1.00 11.60     0.181 C 
HETATM    2  O4' GNP A 200       2.458  48.850  19.030  1.00 10.96    -0.331 OA
HETATM    3  C3' GNP A 200       0.803  48.169  17.441  1.00 12.08     0.216 C 
HETATM    4  O3' GNP A 200      -0.384  47.948  18.244  1.00 14.40    -0.218 OA
HETATM    5  C2' GNP A 200       1.071  49.701  17.306  1.00 12.17     0.234 C 
HETATM    6  O2' GNP A 200      -0.118  50.535  17.219  1.00 13.60    -0.216 OA
HETATM    7  C1' GNP A 200       1.696  50.035  18.675  1.00 11.60     0.241 C 
ENDROOT
BRANCH   1   8
HETATM    8  C5' GNP A 200       3.110  47.141  17.430  1.00 10.62     0.187 C 
BRANCH   8   9
HETATM    9  O5' GNP A 200       4.021  46.337  18.215  1.00  9.72    -0.268 OA
BRANCH   9  10
HETATM   10  PA  GNP A 200       4.241  44.857  17.904  1.00 10.32     0.418 P 
HETATM   11  O1A GNP A 200       3.105  44.023  18.503  1.00  9.87    -0.624 OA
HETATM   12  O2A GNP A 200       5.670  44.450  18.197  1.00 11.09    -0.624 OA
BRANCH  10  13
HETATM   13  O3A GNP A 200       4.086  44.841  16.223  1.00  9.21    -0.185 OA
BRANCH  13  14
HETATM   14  PB  GNP A 200       4.610  43.773  15.225  1.00  8.42     0.401 P 
HETATM   15  O1B GNP A 200       3.384  43.371  14.506  1.00  8.14    -0.628 OA
HETATM   16  O2B GNP A 200       5.348  42.760  15.903  1.00  8.71    -0.628 OA
BRANCH  14  17
HETATM   17  N3B GNP A 200       5.627  44.694  14.112  1.00  9.58    -0.091 NA
BRANCH  17  18
HETATM   18  PG  GNP A 200       6.012  46.248  14.325  1.00  9.51     0.404 P 
HETATM   19  O1G GNP A 200       4.708  47.054  14.544  1.00 10.72    -0.621 OA
HETATM   20  O2G GNP A 200       6.782  46.715  13.239  1.00 10.01    -0.621 OA
HETATM   21  O3G GNP A 200       6.850  46.211  15.633  1.00 11.72    -0.621 OA
ENDBRANCH  17  18
ENDBRANCH  14  17
ENDBRANCH  13  14
ENDBRANCH  10  13
ENDBRANCH   9  10
ENDBRANCH   8   9
ENDBRANCH   1   8
BRANCH   7  22
HETATM   22  N9  GNP A 200       2.634  51.212  18.747  1.00  9.54    -0.269 N 
HETATM   23  C4  GNP A 200       3.206  51.680  19.829  1.00  9.54     0.187 A 
HETATM   24  N3  GNP A 200       3.161  51.258  21.075  1.00 10.76    -0.039 NA
HETATM   25  C5  GNP A 200       3.872  52.820  19.315  1.00  8.26     0.162 A 
HETATM   26  C2  GNP A 200       3.795  51.860  21.949  1.00  9.86     0.772 A 
HETATM   27  N1  GNP A 200       4.593  53.069  21.619  1.00 10.22    -0.029 NA
HETATM   28  N2  GNP A 200       3.916  51.638  23.217  1.00 11.49     0.062 N 
HETATM   29  C6  GNP A 200       4.584  53.474  20.352  1.00 10.19     0.251 A 
HETATM   30  O6  GNP A 200       5.289  54.599  20.057  1.00 11.17    -0.167 OA
HETATM   31  N7  GNP A 200       3.673  52.929  18.045  1.00  8.86    -0.219 NA
HETATM   32  C8  GNP A 200       2.875  51.952  17.568  1.00 11.92     0.182 A 
ENDBRANCH   7  22
TORSDOF 8
ENDMDL
MODEL 3
REMARK VINA RESULT:    -7.643      6.877      9.035
REMARK INTER + INTRA:         -11.599
REMARK INTER:                 -10.633
REMARK INTRA:                  -0.966
REMARK UNBOUND:                -0.381
REMARK  8 active torsions:
REMARK  status: ('A' for Active; 'I' for Inactive)
REMARK    1  A    between atoms: PA_1  and  O5'_5 
REMARK    2  A    between atoms: PA_1  and  O3A_24 
REMARK    3  A    between atoms: PB_2  and  N3B_23 
REMARK    4  A    between atoms: PB_2  and  O3A_24 
REMARK    5  A    between atoms: PG_3  and  N3B_23 
REMARK    6  A    between atoms: C5'_4  and  O5'_5 
REMARK    7  A    between atoms: C5'_4  and  C4'_6 
REMARK    8  A    between atoms: C1'_12  and  N9_32 
ROOT
HETATM    1  C4' GNP A 200       1.944  48.297  17.579  1.00 11.60     0.181 C 
HETATM    2  O4' GNP A 200       1.645  49.174  18.711  1.00 10.96    -0.331 OA
HETATM    3  C3' GNP A 200       2.316  49.227  16.414  1.00 12.08     0.216 C 
HETATM    4  O3' GNP A 200       1.098  49.556  15.701  1.00 14.40    -0.218 OA
HETATM    5  C2' GNP A 200       2.852  50.494  17.153  1.00 12.17     0.234 C 
HETATM    6  O2' GNP A 200       2.652  51.754  16.455  1.00 13.60    -0.216 OA
HETATM    7  C1' GNP A 200       1.920  50.562  18.380  1.00 11.60     0.241 C 
ENDROOT
BRANCH   1   8
HETATM    8  C5' GNP A 200       2.988  47.312  17.916  1.00 10.62     0.187 C 
BRANCH   8   9
HETATM    9  O5' GNP A 200       2.425  46.015  18.222  1.00  9.72    -0.268 OA
BRANCH   9  10
HETATM   10  PA  GNP A 200       3.186  44.727  17.912  1.00 10.32     0.418 P 
HETATM   11  O1A GNP A 200       2.210  43.550  17.834  1.00  9.87    -0.624 OA
HETATM   12  O2A GNP A 200       4.410  44.595  18.796  1.00 11.09    -0.624 OA
BRANCH  10  13
HETATM   13  O3A GNP A 200       3.764  45.045  16.358  1.00  9.21    -0.185 OA
BRANCH  13  14
HETATM   14  PB  GNP A 200       4.444  44.058  15.370  1.00  8.42     0.401 P 
HETATM   15  O1B GNP A 200       3.297  43.309  14.820  1.00  8.14    -0.628 OA
HETATM   16  O2B GNP A 200       5.475  43.317  16.019  1.00  8.71    -0.628 OA
BRANCH  14  17
HETATM   17  N3B GNP A 200       5.086  45.102  14.099  1.00  9.58    -0.091 NA
BRANCH  17  18
HETATM   18  PG  GNP A 200       5.927  46.452  14.385  1.00  9.51     0.404 P 
HETATM   19  O1G GNP A 200       7.169  46.088  15.234  1.00 10.72    -0.621 OA
HETATM   20  O2G GNP A 200       5.101  47.423  14.989  1.00 10.01    -0.621 OA
HETATM   21  O3G GNP A 200       6.358  46.888  12.957  1.00 11.72    -0.621 OA
ENDBRANCH  17  18
ENDBRANCH  14  17
ENDBRANCH  13  14
ENDBRANCH  10  13
ENDBRANCH   9  10
ENDBRANCH   8   9
ENDBRANCH   1   8
BRANCH   7  22
HETATM   22  N9  GNP A 200       2.449  51.227  19.624  1.00  9.54    -0.269 N 
HETATM   23  C4  GNP A 200       2.594  52.515  19.811  1.00  9.54     0.187 A 
HETATM   24  N3  GNP A 200       2.300  53.534  19.030  1.00 10.76    -0.039 NA
HETATM   25  C5  GNP A 200       3.210  52.539  21.086  1.00  8.26     0.162 A 
HETATM   26  C2  GNP A 200       2.521  54.686  19.418  1.00  9.86     0.772 A 
HETATM   27  N1  GNP A 200       3.135  54.941  20.748  1.00 10.22    -0.029 NA
HETATM   28  N2  GNP A 200       2.315  55.830  18.850  1.00 11.49     0.062 N 
HETATM   29  C6  GNP A 200       3.442  53.880  21.487  1.00 10.19     0.251 A 
HETATM   30  O6  GNP A 200       4.033  54.113  22.690  1.00 11.17    -0.167 OA
HETATM   31  N7  GNP A 200       3.360  51.342  21.542  1.00  8.86    -0.219 NA
HETATM   32  C8  GNP A 200       2.917  50.408  20.676  1.00 11.92     0.182 A 
ENDBRANCH   7  22
TORSDOF 8
ENDMDL
MODEL 4
REMARK VINA RESULT:    -7.594      7.422      9.339
REMARK INTER + INTRA:         -11.527
REMARK INTER:                 -10.557
REMARK INTRA:                  -0.970
REMARK UNBOUND:                -0.381
REMARK  8 active torsions:
REMARK  status: ('A' for Active; 'I' for Inactive)
REMARK    1  A    between atoms: PA_1  and  O5'_5 
REMARK    2  A    between atoms: PA_1  and  O3A_24 
REMARK    3  A    between atoms: PB_2  and  N3B_23 
REMARK    4  A    between atoms: PB_2  and  O3A_24 
REMARK    5  A    between atoms: PG_3  and  N3B_23 
REMARK    6  A    between atoms: C5'_4  and  O5'_5 
REMARK    7  A    between atoms: C5'_4  and  C4'_6 
REMARK    8  A    between atoms: C1'_12  and  N9_32 
ROOT
HETATM    1  C4' GNP A 200      -0.435  49.225  17.913  1.00 11.60     0.181 C 
HETATM    2  O4' GNP A 200      -0.731  48.896  19.307  1.00 10.96    -0.331 OA
HETATM    3  C3' GNP A 200      -1.301  50.450  17.578  1.00 12.08     0.216 C 
HETATM    4  O3' GNP A 200      -2.576  49.970  17.083  1.00 14.40    -0.218 OA
HETATM    5  C2' GNP A 200      -1.495  51.116  18.977  1.00 12.17     0.234 C 
HETATM    6  O2' GNP A 200      -2.743  51.842  19.152  1.00 13.60    -0.216 OA
HETATM    7  C1' GNP A 200      -1.613  49.886  19.900  1.00 11.60     0.241 C 
ENDROOT
BRANCH   1   8
HETATM    8  C5' GNP A 200       1.009  49.436  17.699  1.00 10.62     0.187 C 
BRANCH   8   9
HETATM    9  O5' GNP A 200       1.623  48.311  17.029  1.00  9.72    -0.268 OA
BRANCH   9  10
HETATM   10  PA  GNP A 200       2.915  47.685  17.552  1.00 10.32     0.418 P 
HETATM   11  O1A GNP A 200       3.160  48.125  18.999  1.00  9.87    -0.624 OA
HETATM   12  O2A GNP A 200       4.038  47.843  16.548  1.00 11.09    -0.624 OA
BRANCH  10  13
HETATM   13  O3A GNP A 200       2.516  46.045  17.553  1.00  9.21    -0.185 OA
BRANCH  13  14
HETATM   14  PB  GNP A 200       3.434  44.838  17.890  1.00  8.42     0.401 P 
HETATM   15  O1B GNP A 200       2.767  44.241  19.064  1.00  8.14    -0.628 OA
HETATM   16  O2B GNP A 200       4.790  45.253  18.033  1.00  8.71    -0.628 OA
BRANCH  14  17
HETATM   17  N3B GNP A 200       3.222  43.746  16.518  1.00  9.58    -0.091 NA
BRANCH  17  18
HETATM   18  PG  GNP A 200       4.209  43.709  15.240  1.00  9.51     0.404 P 
HETATM   19  O1G GNP A 200       4.648  45.157  14.913  1.00 10.72    -0.621 OA
HETATM   20  O2G GNP A 200       3.583  43.056  14.157  1.00 10.01    -0.621 OA
HETATM   21  O3G GNP A 200       5.415  42.886  15.770  1.00 11.72    -0.621 OA
ENDBRANCH  17  18
ENDBRANCH  14  17
ENDBRANCH  13  14
ENDBRANCH  10  13
ENDBRANCH   9  10
ENDBRANCH   8   9
ENDBRANCH   1   8
BRANCH   7  22
HETATM   22  N9  GNP A 200      -1.204  50.050  21.340  1.00  9.54    -0.269 N 
HETATM   23  C4  GNP A 200      -0.011  50.375  21.773  1.00  9.54     0.187 A 
HETATM   24  N3  GNP A 200       1.090  50.672  21.114  1.00 10.76    -0.039 NA
HETATM   25  C5  GNP A 200      -0.193  50.280  23.174  1.00  8.26     0.162 A 
HETATM   26  C2  GNP A 200       2.118  50.958  21.737  1.00  9.86     0.772 A 
HETATM   27  N1  GNP A 200       2.138  50.954  23.223  1.00 10.22    -0.029 NA
HETATM   28  N2  GNP A 200       3.298  51.289  21.324  1.00 11.49     0.062 N 
HETATM   29  C6  GNP A 200       1.011  50.619  23.843  1.00 10.19     0.251 A 
HETATM   30  O6  GNP A 200       1.039  50.584  25.203  1.00 11.17    -0.167 OA
HETATM   31  N7  GNP A 200      -1.407  49.945  23.454  1.00  8.86    -0.219 NA
HETATM   32  C8  GNP A 200      -2.151  49.755  22.346  1.00 11.92     0.182 A 
ENDBRANCH   7  22
TORSDOF 8
ENDMDL
MODEL 5
REMARK VINA RESULT:    -7.547      7.191      8.963
REMARK INTER + INTRA:         -11.457
REMARK INTER:                 -10.459
REMARK INTRA:                  -0.998
REMARK UNBOUND:                -0.381
REMARK  8 active torsions:
REMARK  status: ('A' for Active; 'I' for Inactive)
REMARK    1  A    between atoms: PA_1  and  O5'_5 
REMARK    2  A    between atoms: PA_1  and  O3A_24 
REMARK    3  A    between atoms: PB_2  and  N3B_23 
REMARK    4  A    between atoms: PB_2  and  O3A_24 
REMARK    5  A    between atoms: PG_3  and  N3B_23 
REMARK    6  A    between atoms: C5'_4  and  O5'_5 
REMARK    7  A    between atoms: C5'_4  and  C4'_6 
REMARK    8  A    between atoms: C1'_12  and  N9_32 
ROOT
HETATM    1  C4' GNP A 200       1.505  50.351  17.623  1.00 11.60     0.181 C 
HETATM    2  O4' GNP A 200       1.193  50.063  19.023  1.00 10.96    -0.331 OA
HETATM    3  C3' GNP A 200       1.347  51.871  17.463  1.00 12.08     0.216 C 
HETATM    4  O3' GNP A 200      -0.030  52.140  17.100  1.00 14.40    -0.218 OA
HETATM    5  C2' GNP A 200       1.623  52.392  18.909  1.00 12.17     0.234 C 
HETATM    6  O2' GNP A 200       0.926  53.616  19.273  1.00 13.60    -0.216 OA
HETATM    7  C1' GNP A 200       0.975  51.289  19.771  1.00 11.60     0.241 C 
ENDROOT
BRANCH   1   8
HETATM    8  C5' GNP A 200       2.838  49.844  17.248  1.00 10.62     0.187 C 
BRANCH   8   9
HETATM    9  O5' GNP A 200       3.140  48.591  17.903  1.00  9.72    -0.268 OA
BRANCH   9  10
HETATM   10  PA  GNP A 200       3.036  47.261  17.156  1.00 10.32     0.418 P 
HETATM   11  O1A GNP A 200       3.245  47.487  15.656  1.00  9.87    -0.624 OA
HETATM   12  O2A GNP A 200       1.819  46.480  17.607  1.00 11.09    -0.624 OA
BRANCH  10  13
HETATM   13  O3A GNP A 200       4.375  46.431  17.763  1.00  9.21    -0.185 OA
BRANCH  13  14
HETATM   14  PB  GNP A 200       4.559  44.897  17.919  1.00  8.42     0.401 P 
HETATM   15  O1B GNP A 200       3.710  44.586  19.086  1.00  8.14    -0.628 OA
HETATM   16  O2B GNP A 200       5.940  44.553  17.989  1.00  8.71    -0.628 OA
BRANCH  14  17
HETATM   17  N3B GNP A 200       3.786  44.228  16.478  1.00  9.58    -0.091 NA
BRANCH  17  18
HETATM   18  PG  GNP A 200       4.597  43.744  15.168  1.00  9.51     0.404 P 
HETATM   19  O1G GNP A 200       3.580  43.241  14.115  1.00 10.72    -0.621 OA
HETATM   20  O2G GNP A 200       5.563  42.777  15.519  1.00 10.01    -0.621 OA
HETATM   21  O3G GNP A 200       5.269  45.059  14.684  1.00 11.72    -0.621 OA
ENDBRANCH  17  18
ENDBRANCH  14  17
ENDBRANCH  13  14
ENDBRANCH  10  13
ENDBRANCH   9  10
ENDBRANCH   8   9
ENDBRANCH   1   8
BRANCH   7  22
HETATM   22  N9  GNP A 200       1.522  51.075  21.159  1.00  9.54    -0.269 N 
HETATM   23  C4  GNP A 200       0.843  50.670  22.203  1.00  9.54     0.187 A 
HETATM   24  N3  GNP A 200      -0.420  50.318  22.323  1.00 10.76    -0.039 NA
HETATM   25  C5  GNP A 200       1.828  50.751  23.218  1.00  8.26     0.162 A 
HETATM   26  C2  GNP A 200      -0.854  49.959  23.422  1.00  9.86     0.772 A 
HETATM   27  N1  GNP A 200       0.024  49.936  24.621  1.00 10.22    -0.029 NA
HETATM   28  N2  GNP A 200      -2.032  49.564  23.784  1.00 11.49     0.062 N 
HETATM   29  C6  GNP A 200       1.283  50.328  24.457  1.00 10.19     0.251 A 
HETATM   30  O6  GNP A 200       2.078  50.337  25.561  1.00 11.17    -0.167 OA
HETATM   31  N7  GNP A 200       2.952  51.155  22.730  1.00  8.86    -0.219 NA
HETATM   32  C8  GNP A 200       2.871  51.410  21.408  1.00 11.92     0.182 A 
ENDBRANCH   7  22
TORSDOF 8
ENDMDL
MODEL 6
REMARK VINA RESULT:    -7.444      7.070     10.283
REMARK INTER + INTRA:         -11.307
REMARK INTER:                 -10.350
REMARK INTRA:                  -0.957
REMARK UNBOUND:                -0.381
REMARK  8 active torsions:
REMARK  status: ('A' for Active; 'I' for Inactive)
REMARK    1  A    between atoms: PA_1  and  O5'_5 
REMARK    2  A    between atoms: PA_1  and  O3A_24 
REMARK    3  A    between atoms: PB_2  and  N3B_23 
REMARK    4  A    between atoms: PB_2  and  O3A_24 
REMARK    5  A    between atoms: PG_3  and  N3B_23 
REMARK    6  A    between atoms: C5'_4  and  O5'_5 
REMARK    7  A    between atoms: C5'_4  and  C4'_6 
REMARK    8  A    between atoms: C1'_12  and  N9_32 
ROOT
HETATM    1  C4' GNP A 200       1.145  50.209  14.666  1.00 11.60     0.181 C 
HETATM    2  O4' GNP A 200       1.246  49.112  15.628  1.00 10.96    -0.331 OA
HETATM    3  C3' GNP A 200       1.801  51.422  15.343  1.00 12.08     0.216 C 
HETATM    4  O3' GNP A 200       0.775  52.123  16.090  1.00 14.40    -0.218 OA
HETATM    5  C2' GNP A 200       2.807  50.752  16.331  1.00 12.17     0.234 C 
HETATM    6  O2' GNP A 200       3.078  51.502  17.548  1.00 13.60    -0.216 OA
HETATM    7  C1' GNP A 200       2.018  49.510  16.793  1.00 11.60     0.241 C 
ENDROOT
BRANCH   1   8
HETATM    8  C5' GNP A 200       1.744  49.850  13.368  1.00 10.62     0.187 C 
BRANCH   8   9
HETATM    9  O5' GNP A 200       0.761  49.838  12.307  1.00  9.72    -0.268 OA
BRANCH   9  10
HETATM   10  PA  GNP A 200       0.416  51.108  11.531  1.00 10.32     0.418 P 
HETATM   11  O1A GNP A 200       1.653  52.004  11.418  1.00  9.87    -0.624 OA
HETATM   12  O2A GNP A 200      -0.875  51.718  12.038  1.00 11.09    -0.624 OA
BRANCH  10  13
HETATM   13  O3A GNP A 200       0.068  50.483  10.002  1.00  9.21    -0.185 OA
BRANCH  13  14
HETATM   14  PB  GNP A 200       0.968  49.585   9.110  1.00  8.42     0.401 P 
HETATM   15  O1B GNP A 200       0.388  48.242   9.312  1.00  8.14    -0.628 OA
HETATM   16  O2B GNP A 200       2.345  49.770   9.424  1.00  8.71    -0.628 OA
BRANCH  14  17
HETATM   17  N3B GNP A 200       0.592  50.107   7.465  1.00  9.58    -0.091 NA
BRANCH  17  18
HETATM   18  PG  GNP A 200       1.153  49.373   6.140  1.00  9.51     0.404 P 
HETATM   19  O1G GNP A 200       2.187  48.303   6.568  1.00 10.72    -0.621 OA
HETATM   20  O2G GNP A 200       1.674  50.324   5.237  1.00 10.01    -0.621 OA
HETATM   21  O3G GNP A 200      -0.122  48.693   5.567  1.00 11.72    -0.621 OA
ENDBRANCH  17  18
ENDBRANCH  14  17
ENDBRANCH  13  14
ENDBRANCH  10  13
ENDBRANCH   9  10
ENDBRANCH   8   9
ENDBRANCH   1   8
BRANCH   7  22
HETATM   22  N9  GNP A 200       2.807  48.309  17.244  1.00  9.54    -0.269 N 
HETATM   23  C4  GNP A 200       3.669  47.635  16.524  1.00  9.54     0.187 A 
HETATM   24  N3  GNP A 200       4.095  47.826  15.293  1.00 10.76    -0.039 NA
HETATM   25  C5  GNP A 200       4.006  46.585  17.413  1.00  8.26     0.162 A 
HETATM   26  C2  GNP A 200       4.930  47.056  14.808  1.00  9.86     0.772 A 
HETATM   27  N1  GNP A 200       5.448  45.900  15.585  1.00 10.22    -0.029 NA
HETATM   28  N2  GNP A 200       5.500  47.041  13.646  1.00 11.49     0.062 N 
HETATM   29  C6  GNP A 200       4.966  45.730  16.812  1.00 10.19     0.251 A 
HETATM   30  O6  GNP A 200       5.417  44.654  17.511  1.00 11.17    -0.167 OA
HETATM   31  N7  GNP A 200       3.374  46.713  18.530  1.00  8.86    -0.219 NA
HETATM   32  C8  GNP A 200       2.557  47.786  18.533  1.00 11.92     0.182 A 
ENDBRANCH   7  22
TORSDOF 8
ENDMDL
MODEL 7
REMARK VINA RESULT:    -7.408      6.627      9.595
REMARK INTER + INTRA:         -11.254
REMARK INTER:                 -10.307
REMARK INTRA:                  -0.947
REMARK UNBOUND:                -0.381
REMARK  8 active torsions:
REMARK  status: ('A' for Active; 'I' for Inactive)
REMARK    1  A    between atoms: PA_1  and  O5'_5 
REMARK    2  A    between atoms: PA_1  and  O3A_24 
REMARK    3  A    between atoms: PB_2  and  N3B_23 
REMARK    4  A    between atoms: PB_2  and  O3A_24 
REMARK    5  A    between atoms: PG_3  and  N3B_23 
REMARK    6  A    between atoms: C5'_4  and  O5'_5 
REMARK    7  A    between atoms: C5'_4  and  C4'_6 
REMARK    8  A    between atoms: C1'_12  and  N9_32 
ROOT
HETATM    1  C4' GNP A 200      -0.467  48.992  18.449  1.00 11.60     0.181 C 
HETATM    2  O4' GNP A 200       0.611  48.023  18.251  1.00 10.96    -0.331 OA
HETATM    3  C3' GNP A 200       0.222  50.325  18.780  1.00 12.08     0.216 C 
HETATM    4  O3' GNP A 200       0.400  50.389  20.217  1.00 14.40    -0.218 OA
HETATM    5  C2' GNP A 200       1.610  50.167  18.083  1.00 12.17     0.234 C 
HETATM    6  O2' GNP A 200       2.710  50.875  18.720  1.00 13.60    -0.216 OA
HETATM    7  C1' GNP A 200       1.910  48.671  18.310  1.00 11.60     0.241 C 
ENDROOT
BRANCH   1   8
HETATM    8  C5' GNP A 200      -1.363  49.054  17.280  1.00 10.62     0.187 C 
BRANCH   8   9
HETATM    9  O5' GNP A 200      -2.736  48.777  17.639  1.00  9.72    -0.268 OA
BRANCH   9  10
HETATM   10  PA  GNP A 200      -3.177  47.378  18.067  1.00 10.32     0.418 P 
HETATM   11  O1A GNP A 200      -3.496  47.367  19.566  1.00  9.87    -0.624 OA
HETATM   12  O2A GNP A 200      -2.237  46.323  17.520  1.00 11.09    -0.624 OA
BRANCH  10  13
HETATM   13  O3A GNP A 200      -4.622  47.206  17.212  1.00  9.21    -0.185 OA
BRANCH  13  14
HETATM   14  PB  GNP A 200      -5.237  45.906  16.626  1.00  8.42     0.401 P 
HETATM   15  O1B GNP A 200      -6.598  46.334  16.244  1.00  8.14    -0.628 OA
HETATM   16  O2B GNP A 200      -5.113  44.824  17.545  1.00  8.71    -0.628 OA
BRANCH  14  17
HETATM   17  N3B GNP A 200      -4.310  45.625  15.150  1.00  9.58    -0.091 NA
BRANCH  17  18
HETATM   18  PG  GNP A 200      -4.790  44.640  13.962  1.00  9.51     0.404 P 
HETATM   19  O1G GNP A 200      -5.405  43.368  14.595  1.00 10.72    -0.621 OA
HETATM   20  O2G GNP A 200      -3.715  44.367  13.089  1.00 10.01    -0.621 OA
HETATM   21  O3G GNP A 200      -5.890  45.478  13.255  1.00 11.72    -0.621 OA
ENDBRANCH  17  18
ENDBRANCH  14  17
ENDBRANCH  13  14
ENDBRANCH  10  13
ENDBRANCH   9  10
ENDBRANCH   8   9
ENDBRANCH   1   8
BRANCH   7  22
HETATM   22  N9  GNP A 200       2.806  47.979  17.316  1.00  9.54    -0.269 N 
HETATM   23  C4  GNP A 200       3.503  46.891  17.530  1.00  9.54     0.187 A 
HETATM   24  N3  GNP A 200       3.585  46.119  18.594  1.00 10.76    -0.039 NA
HETATM   25  C5  GNP A 200       4.209  46.773  16.308  1.00  8.26     0.162 A 
HETATM   26  C2  GNP A 200       4.316  45.123  18.573  1.00  9.86     0.772 A 
HETATM   27  N1  GNP A 200       5.123  44.791  17.369  1.00 10.22    -0.029 NA
HETATM   28  N2  GNP A 200       4.552  44.222  19.470  1.00 11.49     0.062 N 
HETATM   29  C6  GNP A 200       5.030  45.617  16.332  1.00 10.19     0.251 A 
HETATM   30  O6  GNP A 200       5.794  45.331  15.243  1.00 11.17    -0.167 OA
HETATM   31  N7  GNP A 200       3.886  47.728  15.502  1.00  8.86    -0.219 NA
HETATM   32  C8  GNP A 200       2.995  48.578  16.051  1.00 11.92     0.182 A 
ENDBRANCH   7  22
TORSDOF 8
ENDMDL
MODEL 8
REMARK VINA RESULT:    -7.239      6.730      9.320
REMARK INTER + INTRA:         -11.006
REMARK INTER:                 -10.749
REMARK INTRA:                  -0.257
REMARK UNBOUND:                -0.381
REMARK  8 active torsions:
REMARK  status: ('A' for Active; 'I' for Inactive)
REMARK    1  A    between atoms: PA_1  and  O5'_5 
REMARK    2  A    between atoms: PA_1  and  O3A_24 
REMARK    3  A    between atoms: PB_2  and  N3B_23 
REMARK    4  A    between atoms: PB_2  and  O3A_24 
REMARK    5  A    between atoms: PG_3  and  N3B_23 
REMARK    6  A    between atoms: C5'_4  and  O5'_5 
REMARK    7  A    between atoms: C5'_4  and  C4'_6 
REMARK    8  A    between atoms: C1'_12  and  N9_32 
ROOT
HETATM    1  C4' GNP A 200       1.596  49.061  18.102  1.00 11.60     0.181 C 
HETATM    2  O4' GNP A 200       2.737  48.153  17.980  1.00 10.96    -0.331 OA
HETATM    3  C3' GNP A 200       1.690  50.017  16.902  1.00 12.08     0.216 C 
HETATM    4  O3' GNP A 200       2.501  51.151  17.300  1.00 14.40    -0.218 OA
HETATM    5  C2' GNP A 200       2.463  49.160  15.851  1.00 12.17     0.234 C 
HETATM    6  O2' GNP A 200       3.291  49.913  14.921  1.00 13.60    -0.216 OA
HETATM    7  C1' GNP A 200       3.458  48.387  16.740  1.00 11.60     0.241 C 
ENDROOT
BRANCH   1   8
HETATM    8  C5' GNP A 200       0.322  48.324  18.183  1.00 10.62     0.187 C 
BRANCH   8   9
HETATM    9  O5' GNP A 200      -0.559  48.882  19.186  1.00  9.72    -0.268 OA
BRANCH   9  10
HETATM   10  PA  GNP A 200      -2.071  48.680  19.114  1.00 10.32     0.418 P 
HETATM   11  O1A GNP A 200      -2.729  49.893  18.450  1.00  9.87    -0.624 OA
HETATM   12  O2A GNP A 200      -2.617  48.198  20.442  1.00 11.09    -0.624 OA
BRANCH  10  13
HETATM   13  O3A GNP A 200      -2.184  47.367  18.058  1.00  9.21    -0.185 OA
BRANCH  13  14
HETATM   14  PB  GNP A 200      -3.455  46.570  17.656  1.00  8.42     0.401 P 
HETATM   15  O1B GNP A 200      -4.523  47.584  17.771  1.00  8.14    -0.628 OA
HETATM   16  O2B GNP A 200      -3.578  45.381  18.432  1.00  8.71    -0.628 OA
BRANCH  14  17
HETATM   17  N3B GNP A 200      -3.210  46.215  15.943  1.00  9.58    -0.091 NA
BRANCH  17  18
HETATM   18  PG  GNP A 200      -4.412  45.898  14.912  1.00  9.51     0.404 P 
HETATM   19  O1G GNP A 200      -3.837  45.110  13.710  1.00 10.72    -0.621 OA
HETATM   20  O2G GNP A 200      -5.064  47.092  14.538  1.00 10.01    -0.621 OA
HETATM   21  O3G GNP A 200      -5.348  44.988  15.756  1.00 11.72    -0.621 OA
ENDBRANCH  17  18
ENDBRANCH  14  17
ENDBRANCH  13  14
ENDBRANCH  10  13
ENDBRANCH   9  10
ENDBRANCH   8   9
ENDBRANCH   1   8
BRANCH   7  22
HETATM   22  N9  GNP A 200       3.949  47.052  16.245  1.00  9.54    -0.269 N 
HETATM   23  C4  GNP A 200       3.907  45.920  16.902  1.00  9.54     0.187 A 
HETATM   24  N3  GNP A 200       3.418  45.635  18.091  1.00 10.76    -0.039 NA
HETATM   25  C5  GNP A 200       4.583  45.057  16.005  1.00  8.26     0.162 A 
HETATM   26  C2  GNP A 200       3.482  44.478  18.519  1.00  9.86     0.772 A 
HETATM   27  N1  GNP A 200       4.124  43.402  17.720  1.00 10.22    -0.029 NA
HETATM   28  N2  GNP A 200       3.072  43.958  19.630  1.00 11.49     0.062 N 
HETATM   29  C6  GNP A 200       4.630  43.744  16.539  1.00 10.19     0.251 A 
HETATM   30  O6  GNP A 200       5.245  42.765  15.822  1.00 11.17    -0.167 OA
HETATM   31  N7  GNP A 200       4.939  45.694  14.941  1.00  8.86    -0.219 NA
HETATM   32  C8  GNP A 200       4.595  46.998  14.989  1.00 11.92     0.182 A 
ENDBRANCH   7  22
TORSDOF 8
ENDMDL
MODEL 9
REMARK VINA RESULT:    -7.129      7.478      9.980
REMARK INTER + INTRA:         -10.845
REMARK INTER:                 -10.023
REMARK INTRA:                  -0.822
REMARK UNBOUND:                -0.381
REMARK  8 active torsions:
REMARK  status: ('A' for Active; 'I' for Inactive)
REMARK    1  A    between atoms: PA_1  and  O5'_5 
REMARK    2  A    between atoms: PA_1  and  O3A_24 
REMARK    3  A    between atoms: PB_2  and  N3B_23 
REMARK    4  A    between atoms: PB_2  and  O3A_24 
REMARK    5  A    between atoms: PG_3  and  N3B_23 
REMARK    6  A    between atoms: C5'_4  and  O5'_5 
REMARK    7  A    between atoms: C5'_4  and  C4'_6 
REMARK    8  A    between atoms: C1'_12  and  N9_32 
ROOT
HETATM    1  C4' GNP A 200       1.169  48.931  18.349  1.00 11.60     0.181 C 
HETATM    2  O4' GNP A 200       2.208  47.904  18.429  1.00 10.96    -0.331 OA
HETATM    3  C3' GNP A 200       1.541  49.811  17.145  1.00 12.08     0.216 C 
HETATM    4  O3' GNP A 200       2.405  50.873  17.621  1.00 14.40    -0.218 OA
HETATM    5  C2' GNP A 200       2.359  48.827  16.250  1.00 12.17     0.234 C 
HETATM    6  O2' GNP A 200       3.392  49.443  15.431  1.00 13.60    -0.216 OA
HETATM    7  C1' GNP A 200       3.123  48.000  17.305  1.00 11.60     0.241 C 
ENDROOT
BRANCH   1   8
HETATM    8  C5' GNP A 200      -0.177  48.336  18.263  1.00 10.62     0.187 C 
BRANCH   8   9
HETATM    9  O5' GNP A 200      -1.030  49.066  17.352  1.00  9.72    -0.268 OA
BRANCH   9  10
HETATM   10  PA  GNP A 200      -2.553  48.975  17.446  1.00 10.32     0.418 P 
HETATM   11  O1A GNP A 200      -3.188  50.247  16.876  1.00  9.87    -0.624 OA
HETATM   12  O2A GNP A 200      -2.983  48.506  18.821  1.00 11.09    -0.624 OA
BRANCH  10  13
HETATM   13  O3A GNP A 200      -2.878  47.697  16.393  1.00  9.21    -0.185 OA
BRANCH  13  14
HETATM   14  PB  GNP A 200      -4.198  47.399  15.630  1.00  8.42     0.401 P 
HETATM   15  O1B GNP A 200      -4.065  48.228  14.416  1.00  8.14    -0.628 OA
HETATM   16  O2B GNP A 200      -5.331  47.619  16.466  1.00  8.71    -0.628 OA
BRANCH  14  17
HETATM   17  N3B GNP A 200      -4.045  45.703  15.162  1.00  9.58    -0.091 NA
BRANCH  17  18
HETATM   18  PG  GNP A 200      -5.305  44.718  14.933  1.00  9.51     0.404 P 
HETATM   19  O1G GNP A 200      -5.920  44.375  16.312  1.00 10.72    -0.621 OA
HETATM   20  O2G GNP A 200      -4.909  43.580  14.198  1.00 10.01    -0.621 OA
HETATM   21  O3G GNP A 200      -6.281  45.606  14.112  1.00 11.72    -0.621 OA
ENDBRANCH  17  18
ENDBRANCH  14  17
ENDBRANCH  13  14
ENDBRANCH  10  13
ENDBRANCH   9  10
ENDBRANCH   8   9
ENDBRANCH   1   8
BRANCH   7  22
HETATM   22  N9  GNP A 200       3.531  46.598  16.933  1.00  9.54    -0.269 N 
HETATM   23  C4  GNP A 200       4.402  46.265  16.014  1.00  9.54     0.187 A 
HETATM   24  N3  GNP A 200       5.152  47.011  15.230  1.00 10.76    -0.039 NA
HETATM   25  C5  GNP A 200       4.300  44.852  16.040  1.00  8.26     0.162 A 
HETATM   26  C2  GNP A 200       5.920  46.474  14.425  1.00  9.86     0.772 A 
HETATM   27  N1  GNP A 200       5.997  44.994  14.311  1.00 10.22    -0.029 NA
HETATM   28  N2  GNP A 200       6.750  46.982  13.572  1.00 11.49     0.062 N 
HETATM   29  C6  GNP A 200       5.199  44.283  15.102  1.00 10.19     0.251 A 
HETATM   30  O6  GNP A 200       5.247  42.930  14.975  1.00 11.17    -0.167 OA
HETATM   31  N7  GNP A 200       3.443  44.474  16.928  1.00  8.86    -0.219 NA
HETATM   32  C8  GNP A 200       2.871  45.518  17.560  1.00 11.92     0.182 A 
ENDBRANCH   7  22
TORSDOF 8
ENDMDL
