MODEL 1
REMARK VINA RESULT:   -10.018      0.000      0.000
REMARK INTER + INTRA:         -14.264
REMARK INTER:                 -12.653
REMARK INTRA:                  -1.611
REMARK UNBOUND:                -1.611
REMARK  Name = CHEMBL442_ERGOTAMINE
REMARK  7 active torsions:
REMARK  status: ('A' for Active; 'I' for Inactive)
REMARK    1  A    between atoms: C_1  and  N_2
REMARK    2  A    between atoms: C_4  and  C_5
REMARK    3  A    between atoms: N_7  and  C_8
REMARK    4  A    between atoms: C_8  and  C_9
REMARK    5  A    between atoms: C_11  and  O_12
REMARK    6  A    between atoms: C_20  and  C_21
REMARK    7  A    between atoms: C_21  and  C_22
REMARK                            x       y       z     vdW  Elec       q    Type
REMARK                         _______ _______ _______ _____ _____    ______ ____
ROOT
ATOM      1  C   UNL     1      -6.318  19.797  -1.856  0.00  0.00    +0.000 C 
ATOM      2  C   UNL     1      -6.642  20.489  -3.172  0.00  0.00    +0.000 C 
ATOM      3  O   UNL     1      -7.341  20.076  -0.889  0.00  0.00    +0.000 OA
ATOM      4  C   UNL     1      -7.640  18.871  -0.210  0.00  0.00    +0.000 C 
ATOM      5  C   UNL     1      -9.143  18.733   0.083  0.00  0.00    +0.000 C 
ATOM      6  C   UNL     1      -9.724  19.610   1.191  0.00  0.00    +0.000 C 
ATOM      7  C   UNL     1     -11.004  18.856   1.559  0.00  0.00    +0.000 C 
ATOM      8  C   UNL     1     -10.588  17.390   1.473  0.00  0.00    +0.000 C 
ATOM      9  N   UNL     1      -9.508  17.382   0.506  0.00  0.00    +0.000 N 
ATOM     10  C   UNL     1      -8.837  16.237   0.124  0.00  0.00    +0.000 C 
ATOM     11  O   UNL     1      -9.222  15.127   0.493  0.00  0.00    +0.000 OA
ATOM     12  C   UNL     1      -7.554  16.420  -0.752  0.00  0.00    +0.000 C 
ATOM     13  N   UNL     1      -7.260  17.819  -1.082  0.00  0.00    +0.000 N 
ATOM     14  C   UNL     1      -6.381  18.273  -2.027  0.00  0.00    +0.000 C 
ATOM     15  O   UNL     1      -5.718  17.598  -2.797  0.00  0.00    +0.000 OA
ENDROOT
BRANCH   1  18
ATOM     16  C   UNL     1      -4.573  21.448  -1.210  0.00  0.00    +0.000 C 
ATOM     17  O   UNL     1      -5.265  22.429  -1.468  0.00  0.00    +0.000 OA
ATOM     18  N   UNL     1      -5.023  20.154  -1.317  0.00  0.00    +0.000 N 
ATOM     19  H   UNL     1      -4.341  19.404  -1.261  0.00  0.00    +0.000 HD
BRANCH  16  23
ATOM     20  C   UNL     1      -0.893  22.807   0.959  0.00  0.00    +0.000 C 
ATOM     21  N   UNL     1      -1.866  21.844   1.478  0.00  0.00    +0.000 NA
ATOM     22  C   UNL     1      -3.166  21.985   0.794  0.00  0.00    +0.000 C 
ATOM     23  C   UNL     1      -3.136  21.600  -0.698  0.00  0.00    +0.000 C 
ATOM     24  C   UNL     1      -2.348  20.336  -0.952  0.00  0.00    +0.000 C 
ATOM     25  C   UNL     1      -1.599  19.758   0.008  0.00  0.00    +0.000 C 
ATOM     26  C   UNL     1      -0.962  18.434  -0.206  0.00  0.00    +0.000 A 
ATOM     27  C   UNL     1      -1.242  17.485  -1.200  0.00  0.00    +0.000 A 
ATOM     28  C   UNL     1      -0.577  16.250  -1.223  0.00  0.00    +0.000 A 
ATOM     29  C   UNL     1       0.383  15.909  -0.260  0.00  0.00    +0.000 A 
ATOM     30  C   UNL     1       0.650  16.861   0.727  0.00  0.00    +0.000 A 
ATOM     31  N   UNL     1       1.508  16.854   1.805  0.00  0.00    +0.000 N 
ATOM     32  C   UNL     1       1.426  18.048   2.490  0.00  0.00    +0.000 A 
ATOM     33  C   UNL     1       0.496  18.830   1.845  0.00  0.00    +0.000 A 
ATOM     34  C   UNL     1       0.004  18.086   0.749  0.00  0.00    +0.000 A 
ATOM     35  C   UNL     1       0.008  20.217   2.067  0.00  0.00    +0.000 C 
ATOM     36  C   UNL     1      -1.410  20.421   1.411  0.00  0.00    +0.000 C 
ATOM     37  H   UNL     1       2.117  16.086   2.050  0.00  0.00    +0.000 HD
ENDBRANCH  16  23
ENDBRANCH   1  18
BRANCH   4  38
ATOM     38  O   UNL     1      -6.830  18.776   0.938  0.00  0.00    +0.000 OA
ATOM     39  H   UNL     1      -7.388  18.332   1.596  0.00  0.00    +0.000 HD
ENDBRANCH   4  38
BRANCH  12  40
ATOM     40  C   UNL     1      -6.355  15.753  -0.041  0.00  0.00    +0.000 C 
BRANCH  40  41
ATOM     41  C   UNL     1      -5.670  14.713  -0.899  0.00  0.00    +0.000 A 
ATOM     42  C   UNL     1      -6.375  13.585  -1.339  0.00  0.00    +0.000 A 
ATOM     43  C   UNL     1      -5.744  12.615  -2.118  0.00  0.00    +0.000 A 
ATOM     44  C   UNL     1      -4.402  12.761  -2.462  0.00  0.00    +0.000 A 
ATOM     45  C   UNL     1      -3.690  13.876  -2.023  0.00  0.00    +0.000 A 
ATOM     46  C   UNL     1      -4.319  14.847  -1.244  0.00  0.00    +0.000 A 
ENDBRANCH  40  41
ENDBRANCH  12  40
TORSDOF 5
ENDMDL
