MODEL 1
REMARK VINA RESULT:   -10.018      0.000      0.000
REMARK INTER + INTRA:         -14.264
REMARK INTER:                 -12.653
REMARK INTRA:                  -1.611
REMARK UNBOUND:                -1.611
REMARK  Name = CHEMBL442_ERGOTAMINE
REMARK  7 active torsions:
REMARK  status: ('A' for Active; 'I' for Inactive)
REMARK    1  A    between atoms: C_1  and  N_2
REMARK    2  A    between atoms: C_4  and  C_5
REMARK    3  A    between atoms: N_7  and  C_8
REMARK    4  A    between atoms: C_8  and  C_9
REMARK    5  A    between atoms: C_11  and  O_12
REMARK    6  A    between atoms: C_20  and  C_21
REMARK    7  A    between atoms: C_21  and  C_22
REMARK                            x       y       z     vdW  Elec       q    Type
REMARK                         _______ _______ _______ _____ _____    ______ ____
ROOT
ATOM      1  C   UNL     1      -6.318  19.797  -1.856  0.00  0.00    +0.000 C 
ATOM      2  C   UNL     1      -6.642  20.489  -3.172  0.00  0.00    +0.000 C 
ATOM      3  O   UNL     1      -7.341  20.076  -0.889  0.00  0.00    +0.000 OA
ATOM      4  C   UNL     1      -7.640  18.871  -0.210  0.00  0.00    +0.000 C 
ATOM      5  C   UNL     1      -9.143  18.733   0.083  0.00  0.00    +0.000 C 
ATOM      6  C   UNL     1      -9.724  19.610   1.191  0.00  0.00    +0.000 C 
ATOM      7  C   UNL     1     -11.004  18.856   1.559  0.00  0.00    +0.000 C 
ATOM      8  C   UNL     1     -10.588  17.390   1.473  0.00  0.00    +0.000 C 
ATOM      9  N   UNL     1      -9.508  17.382   0.506  0.00  0.00    +0.000 N 
ATOM     10  C   UNL     1      -8.837  16.237   0.124  0.00  0.00    +0.000 C 
ATOM     11  O   UNL     1      -9.222  15.127   0.493  0.00  0.00    +0.000 OA
ATOM     12  C   UNL     1      -7.554  16.420  -0.752  0.00  0.00    +0.000 C 
ATOM     13  N   UNL     1      -7.260  17.819  -1.082  0.00  0.00    +0.000 N 
ATOM     14  C   UNL     1      -6.381  18.273  -2.027  0.00  0.00    +0.000 C 
ATOM     15  O   UNL     1      -5.718  17.598  -2.797  0.00  0.00    +0.000 OA
ENDROOT
BRANCH   1  18
ATOM     16  C   UNL     1      -4.573  21.448  -1.210  0.00  0.00    +0.000 C 
ATOM     17  O   UNL     1      -5.265  22.429  -1.468  0.00  0.00    +0.000 OA
ATOM     18  N   UNL     1      -5.023  20.154  -1.317  0.00  0.00    +0.000 N 
ATOM     19  H   UNL     1      -4.341  19.404  -1.261  0.00  0.00    +0.000 HD
BRANCH  16  23
ATOM     20  C   UNL     1      -0.893  22.807   0.959  0.00  0.00    +0.000 C 
ATOM     21  N   UNL     1      -1.866  21.844   1.478  0.00  0.00    +0.000 NA
ATOM     22  C   UNL     1      -3.166  21.985   0.794  0.00  0.00    +0.000 C 
ATOM     23  C   UNL     1      -3.136  21.600  -0.698  0.00  0.00    +0.000 C 
ATOM     24  C   UNL     1      -2.348  20.336  -0.952  0.00  0.00    +0.000 C 
ATOM     25  C   UNL     1      -1.599  19.758   0.008  0.00  0.00    +0.000 C 
ATOM     26  C   UNL     1      -0.962  18.434  -0.206  0.00  0.00    +0.000 A 
ATOM     27  C   UNL     1      -1.242  17.485  -1.200  0.00  0.00    +0.000 A 
ATOM     28  C   UNL     1      -0.577  16.250  -1.223  0.00  0.00    +0.000 A 
ATOM     29  C   UNL     1       0.383  15.909  -0.260  0.00  0.00    +0.000 A 
ATOM     30  C   UNL     1       0.650  16.861   0.727  0.00  0.00    +0.000 A 
ATOM     31  N   UNL     1       1.508  16.854   1.805  0.00  0.00    +0.000 N 
ATOM     32  C   UNL     1       1.426  18.048   2.490  0.00  0.00    +0.000 A 
ATOM     33  C   UNL     1       0.496  18.830   1.845  0.00  0.00    +0.000 A 
ATOM     34  C   UNL     1       0.004  18.086   0.749  0.00  0.00    +0.000 A 
ATOM     35  C   UNL     1       0.008  20.217   2.067  0.00  0.00    +0.000 C 
ATOM     36  C   UNL     1      -1.410  20.421   1.411  0.00  0.00    +0.000 C 
ATOM     37  H   UNL     1       2.117  16.086   2.050  0.00  0.00    +0.000 HD
ENDBRANCH  16  23
ENDBRANCH   1  18
BRANCH   4  38
ATOM     38  O   UNL     1      -6.830  18.776   0.938  0.00  0.00    +0.000 OA
ATOM     39  H   UNL     1      -7.388  18.332   1.596  0.00  0.00    +0.000 HD
ENDBRANCH   4  38
BRANCH  12  40
ATOM     40  C   UNL     1      -6.355  15.753  -0.041  0.00  0.00    +0.000 C 
BRANCH  40  41
ATOM     41  C   UNL     1      -5.670  14.713  -0.899  0.00  0.00    +0.000 A 
ATOM     42  C   UNL     1      -6.375  13.585  -1.339  0.00  0.00    +0.000 A 
ATOM     43  C   UNL     1      -5.744  12.615  -2.118  0.00  0.00    +0.000 A 
ATOM     44  C   UNL     1      -4.402  12.761  -2.462  0.00  0.00    +0.000 A 
ATOM     45  C   UNL     1      -3.690  13.876  -2.023  0.00  0.00    +0.000 A 
ATOM     46  C   UNL     1      -4.319  14.847  -1.244  0.00  0.00    +0.000 A 
ENDBRANCH  40  41
ENDBRANCH  12  40
TORSDOF 5
ENDMDL
MODEL 2
REMARK VINA RESULT:    -8.705      3.498      9.743
REMARK INTER + INTRA:         -12.606
REMARK INTER:                 -11.682
REMARK INTRA:                  -0.924
REMARK UNBOUND:                -1.611
REMARK  Name = CHEMBL442_ERGOTAMINE
REMARK  7 active torsions:
REMARK  status: ('A' for Active; 'I' for Inactive)
REMARK    1  A    between atoms: C_1  and  N_2
REMARK    2  A    between atoms: C_4  and  C_5
REMARK    3  A    between atoms: N_7  and  C_8
REMARK    4  A    between atoms: C_8  and  C_9
REMARK    5  A    between atoms: C_11  and  O_12
REMARK    6  A    between atoms: C_20  and  C_21
REMARK    7  A    between atoms: C_21  and  C_22
REMARK                            x       y       z     vdW  Elec       q    Type
REMARK                         _______ _______ _______ _____ _____    ______ ____
ROOT
ATOM      1  C   UNL     1      -3.094  15.407  -2.019  0.00  0.00    +0.000 C 
ATOM      2  C   UNL     1      -2.588  14.888  -3.358  0.00  0.00    +0.000 C 
ATOM      3  O   UNL     1      -2.146  15.108  -0.985  0.00  0.00    +0.000 OA
ATOM      4  C   UNL     1      -2.020  16.253  -0.164  0.00  0.00    +0.000 C 
ATOM      5  C   UNL     1      -0.569  16.477   0.294  0.00  0.00    +0.000 C 
ATOM      6  C   UNL     1      -0.020  15.535   1.364  0.00  0.00    +0.000 C 
ATOM      7  C   UNL     1       1.149  16.343   1.933  0.00  0.00    +0.000 C 
ATOM      8  C   UNL     1       0.614  17.772   1.950  0.00  0.00    +0.000 C 
ATOM      9  N   UNL     1      -0.366  17.799   0.883  0.00  0.00    +0.000 N 
ATOM     10  C   UNL     1      -1.097  18.922   0.548  0.00  0.00    +0.000 C 
ATOM     11  O   UNL     1      -0.848  20.013   1.063  0.00  0.00    +0.000 OA
ATOM     12  C   UNL     1      -2.271  18.734  -0.468  0.00  0.00    +0.000 C 
ATOM     13  N   UNL     1      -2.408  17.359  -0.963  0.00  0.00    +0.000 N 
ATOM     14  C   UNL     1      -3.151  16.941  -2.032  0.00  0.00    +0.000 C 
ATOM     15  O   UNL     1      -3.795  17.641  -2.797  0.00  0.00    +0.000 OA
ENDROOT
BRANCH   1  18
ATOM     16  C   UNL     1      -4.652  13.567  -1.409  0.00  0.00    +0.000 C 
ATOM     17  O   UNL     1      -3.779  12.705  -1.379  0.00  0.00    +0.000 OA
ATOM     18  N   UNL     1      -4.397  14.895  -1.654  0.00  0.00    +0.000 N 
ATOM     19  H   UNL     1      -5.186  15.507  -1.840  0.00  0.00    +0.000 HD
BRANCH  16  23
ATOM     20  C   UNL     1      -8.969  13.757  -0.214  0.00  0.00    +0.000 C 
ATOM     21  N   UNL     1      -8.440  14.155  -1.520  0.00  0.00    +0.000 NA
ATOM     22  C   UNL     1      -6.997  14.453  -1.439  0.00  0.00    +0.000 C 
ATOM     23  C   UNL     1      -6.120  13.225  -1.127  0.00  0.00    +0.000 C 
ATOM     24  C   UNL     1      -6.537  12.002  -1.912  0.00  0.00    +0.000 C 
ATOM     25  C   UNL     1      -7.676  11.972  -2.632  0.00  0.00    +0.000 C 
ATOM     26  C   UNL     1      -7.992  10.829  -3.524  0.00  0.00    +0.000 A 
ATOM     27  C   UNL     1      -7.129   9.828  -3.993  0.00  0.00    +0.000 A 
ATOM     28  C   UNL     1      -7.585   8.844  -4.883  0.00  0.00    +0.000 A 
ATOM     29  C   UNL     1      -8.909   8.821  -5.345  0.00  0.00    +0.000 A 
ATOM     30  C   UNL     1      -9.757   9.825  -4.873  0.00  0.00    +0.000 A 
ATOM     31  N   UNL     1     -11.085  10.100  -5.120  0.00  0.00    +0.000 N 
ATOM     32  C   UNL     1     -11.487  11.204  -4.399  0.00  0.00    +0.000 A 
ATOM     33  C   UNL     1     -10.399  11.648  -3.684  0.00  0.00    +0.000 A 
ATOM     34  C   UNL     1      -9.316  10.793  -3.986  0.00  0.00    +0.000 A 
ATOM     35  C   UNL     1     -10.210  12.749  -2.702  0.00  0.00    +0.000 C 
ATOM     36  C   UNL     1      -8.692  13.160  -2.608  0.00  0.00    +0.000 C 
ATOM     37  H   UNL     1     -11.678   9.561  -5.735  0.00  0.00    +0.000 HD
ENDBRANCH  16  23
ENDBRANCH   1  18
BRANCH   4  38
ATOM     38  O   UNL     1      -2.939  16.161   0.899  0.00  0.00    +0.000 OA
ATOM     39  H   UNL     1      -3.399  15.319   0.755  0.00  0.00    +0.000 HD
ENDBRANCH   4  38
BRANCH  12  40
ATOM     40  C   UNL     1      -3.585  19.225   0.178  0.00  0.00    +0.000 C 
BRANCH  40  41
ATOM     41  C   UNL     1      -4.117  20.489  -0.461  0.00  0.00    +0.000 A 
ATOM     42  C   UNL     1      -3.729  21.744   0.029  0.00  0.00    +0.000 A 
ATOM     43  C   UNL     1      -4.227  22.912  -0.548  0.00  0.00    +0.000 A 
ATOM     44  C   UNL     1      -5.119  22.839  -1.615  0.00  0.00    +0.000 A 
ATOM     45  C   UNL     1      -5.516  21.596  -2.105  0.00  0.00    +0.000 A 
ATOM     46  C   UNL     1      -5.018  20.425  -1.530  0.00  0.00    +0.000 A 
ENDBRANCH  40  41
ENDBRANCH  12  40
TORSDOF 5
ENDMDL
MODEL 3
REMARK VINA RESULT:    -8.696      2.661      8.598
REMARK INTER + INTRA:         -12.595
REMARK INTER:                 -11.185
REMARK INTRA:                  -1.410
REMARK UNBOUND:                -1.611
REMARK  Name = CHEMBL442_ERGOTAMINE
REMARK  7 active torsions:
REMARK  status: ('A' for Active; 'I' for Inactive)
REMARK    1  A    between atoms: C_1  and  N_2
REMARK    2  A    between atoms: C_4  and  C_5
REMARK    3  A    between atoms: N_7  and  C_8
REMARK    4  A    between atoms: C_8  and  C_9
REMARK    5  A    between atoms: C_11  and  O_12
REMARK    6  A    between atoms: C_20  and  C_21
REMARK    7  A    between atoms: C_21  and  C_22
REMARK                            x       y       z     vdW  Elec       q    Type
REMARK                         _______ _______ _______ _____ _____    ______ ____
ROOT
ATOM      1  C   UNL     1      -2.761  15.295  -1.959  0.00  0.00    +0.000 C 
ATOM      2  C   UNL     1      -2.145  14.824  -3.269  0.00  0.00    +0.000 C 
ATOM      3  O   UNL     1      -1.774  15.280  -0.918  0.00  0.00    +0.000 OA
ATOM      4  C   UNL     1      -1.912  16.471  -0.168  0.00  0.00    +0.000 C 
ATOM      5  C   UNL     1      -0.550  17.043   0.262  0.00  0.00    +0.000 C 
ATOM      6  C   UNL     1       0.193  16.315   1.381  0.00  0.00    +0.000 C 
ATOM      7  C   UNL     1       1.147  17.398   1.890  0.00  0.00    +0.000 C 
ATOM      8  C   UNL     1       0.305  18.669   1.827  0.00  0.00    +0.000 C 
ATOM      9  N   UNL     1      -0.653  18.410   0.770  0.00  0.00    +0.000 N 
ATOM     10  C   UNL     1      -1.616  19.318   0.376  0.00  0.00    +0.000 C 
ATOM     11  O   UNL     1      -1.621  20.466   0.822  0.00  0.00    +0.000 OA
ATOM     12  C   UNL     1      -2.713  18.809  -0.616  0.00  0.00    +0.000 C 
ATOM     13  N   UNL     1      -2.535  17.412  -1.027  0.00  0.00    +0.000 N 
ATOM     14  C   UNL     1      -3.161  16.774  -2.063  0.00  0.00    +0.000 C 
ATOM     15  O   UNL     1      -3.944  17.264  -2.861  0.00  0.00    +0.000 OA
ENDROOT
BRANCH   1  18
ATOM     16  C   UNL     1      -4.847  14.026  -2.430  0.00  0.00    +0.000 C 
ATOM     17  O   UNL     1      -4.733  14.099  -3.651  0.00  0.00    +0.000 OA
ATOM     18  N   UNL     1      -3.917  14.527  -1.551  0.00  0.00    +0.000 N 
ATOM     19  H   UNL     1      -4.170  14.587  -0.570  0.00  0.00    +0.000 HD
BRANCH  16  23
ATOM     20  C   UNL     1      -7.556  10.991  -0.549  0.00  0.00    +0.000 C 
ATOM     21  N   UNL     1      -6.579  11.808   0.174  0.00  0.00    +0.000 NA
ATOM     22  C   UNL     1      -5.532  12.311  -0.736  0.00  0.00    +0.000 C 
ATOM     23  C   UNL     1      -6.043  13.319  -1.784  0.00  0.00    +0.000 C 
ATOM     24  C   UNL     1      -6.999  14.330  -1.194  0.00  0.00    +0.000 C 
ATOM     25  C   UNL     1      -7.486  14.205   0.056  0.00  0.00    +0.000 C 
ATOM     26  C   UNL     1      -8.293  15.284   0.679  0.00  0.00    +0.000 A 
ATOM     27  C   UNL     1      -8.421  16.620   0.271  0.00  0.00    +0.000 A 
ATOM     28  C   UNL     1      -9.188  17.529   1.014  0.00  0.00    +0.000 A 
ATOM     29  C   UNL     1      -9.849  17.149   2.191  0.00  0.00    +0.000 A 
ATOM     30  C   UNL     1      -9.711  15.818   2.589  0.00  0.00    +0.000 A 
ATOM     31  N   UNL     1     -10.207  15.124   3.672  0.00  0.00    +0.000 N 
ATOM     32  C   UNL     1      -9.802  13.807   3.622  0.00  0.00    +0.000 A 
ATOM     33  C   UNL     1      -9.028  13.656   2.495  0.00  0.00    +0.000 A 
ATOM     34  C   UNL     1      -8.963  14.913   1.854  0.00  0.00    +0.000 A 
ATOM     35  C   UNL     1      -8.354  12.483   1.877  0.00  0.00    +0.000 C 
ATOM     36  C   UNL     1      -7.181  12.947   0.933  0.00  0.00    +0.000 C 
ATOM     37  H   UNL     1     -10.793  15.524   4.391  0.00  0.00    +0.000 HD
ENDBRANCH  16  23
ENDBRANCH   1  18
BRANCH   4  38
ATOM     38  O   UNL     1      -2.790  16.239   0.908  0.00  0.00    +0.000 OA
ATOM     39  H   UNL     1      -3.226  15.399   0.693  0.00  0.00    +0.000 HD
ENDBRANCH   4  38
BRANCH  12  40
ATOM     40  C   UNL     1      -4.107  19.031   0.013  0.00  0.00    +0.000 C 
BRANCH  40  41
ATOM     41  C   UNL     1      -5.055  19.769  -0.906  0.00  0.00    +0.000 A 
ATOM     42  C   UNL     1      -6.439  19.581  -0.791  0.00  0.00    +0.000 A 
ATOM     43  C   UNL     1      -7.317  20.248  -1.644  0.00  0.00    +0.000 A 
ATOM     44  C   UNL     1      -6.822  21.105  -2.624  0.00  0.00    +0.000 A 
ATOM     45  C   UNL     1      -5.447  21.293  -2.752  0.00  0.00    +0.000 A 
ATOM     46  C   UNL     1      -4.566  20.627  -1.898  0.00  0.00    +0.000 A 
ENDBRANCH  40  41
ENDBRANCH  12  40
TORSDOF 5
ENDMDL
MODEL 4
REMARK VINA RESULT:    -8.631      2.502      6.637
REMARK INTER + INTRA:         -12.512
REMARK INTER:                 -10.877
REMARK INTRA:                  -1.635
REMARK UNBOUND:                -1.611
REMARK  Name = CHEMBL442_ERGOTAMINE
REMARK  7 active torsions:
REMARK  status: ('A' for Active; 'I' for Inactive)
REMARK    1  A    between atoms: C_1  and  N_2
REMARK    2  A    between atoms: C_4  and  C_5
REMARK    3  A    between atoms: N_7  and  C_8
REMARK    4  A    between atoms: C_8  and  C_9
REMARK    5  A    between atoms: C_11  and  O_12
REMARK    6  A    between atoms: C_20  and  C_21
REMARK    7  A    between atoms: C_21  and  C_22
REMARK                            x       y       z     vdW  Elec       q    Type
REMARK                         _______ _______ _______ _____ _____    ______ ____
ROOT
ATOM      1  C   UNL     1      -6.925  19.878   1.978  0.00  0.00    +0.000 C 
ATOM      2  C   UNL     1      -7.184  19.814   3.477  0.00  0.00    +0.000 C 
ATOM      3  O   UNL     1      -8.004  20.557   1.321  0.00  0.00    +0.000 OA
ATOM      4  C   UNL     1      -7.448  21.441   0.367  0.00  0.00    +0.000 C 
ATOM      5  C   UNL     1      -8.220  22.769   0.294  0.00  0.00    +0.000 C 
ATOM      6  C   UNL     1      -9.588  22.747  -0.387  0.00  0.00    +0.000 C 
ATOM      7  C   UNL     1      -9.787  24.220  -0.753  0.00  0.00    +0.000 C 
ATOM      8  C   UNL     1      -8.394  24.668  -1.184  0.00  0.00    +0.000 C 
ATOM      9  N   UNL     1      -7.496  23.796  -0.454  0.00  0.00    +0.000 N 
ATOM     10  C   UNL     1      -6.120  23.866  -0.550  0.00  0.00    +0.000 C 
ATOM     11  O   UNL     1      -5.577  24.781  -1.170  0.00  0.00    +0.000 OA
ATOM     12  C   UNL     1      -5.298  22.716   0.120  0.00  0.00    +0.000 C 
ATOM     13  N   UNL     1      -6.129  21.719   0.806  0.00  0.00    +0.000 N 
ATOM     14  C   UNL     1      -5.705  20.764   1.688  0.00  0.00    +0.000 C 
ATOM     15  O   UNL     1      -4.568  20.597   2.100  0.00  0.00    +0.000 OA
ENDROOT
BRANCH   1  18
ATOM     16  C   UNL     1      -7.612  17.544   1.463  0.00  0.00    +0.000 C 
ATOM     17  O   UNL     1      -8.719  17.650   1.986  0.00  0.00    +0.000 OA
ATOM     18  N   UNL     1      -6.716  18.582   1.371  0.00  0.00    +0.000 N 
ATOM     19  H   UNL     1      -5.764  18.367   1.091  0.00  0.00    +0.000 HD
BRANCH  16  23
ATOM     20  C   UNL     1      -7.475  13.655  -0.761  0.00  0.00    +0.000 C 
ATOM     21  N   UNL     1      -7.314  14.977  -1.370  0.00  0.00    +0.000 NA
ATOM     22  C   UNL     1      -7.895  16.029  -0.513  0.00  0.00    +0.000 C 
ATOM     23  C   UNL     1      -7.156  16.227   0.825  0.00  0.00    +0.000 C 
ATOM     24  C   UNL     1      -5.654  16.211   0.663  0.00  0.00    +0.000 C 
ATOM     25  C   UNL     1      -5.066  15.853  -0.496  0.00  0.00    +0.000 C 
ATOM     26  C   UNL     1      -3.602  15.996  -0.692  0.00  0.00    +0.000 A 
ATOM     27  C   UNL     1      -2.692  16.743   0.069  0.00  0.00    +0.000 A 
ATOM     28  C   UNL     1      -1.338  16.813  -0.292  0.00  0.00    +0.000 A 
ATOM     29  C   UNL     1      -0.840  16.151  -1.424  0.00  0.00    +0.000 A 
ATOM     30  C   UNL     1      -1.757  15.414  -2.175  0.00  0.00    +0.000 A 
ATOM     31  N   UNL     1      -1.615  14.664  -3.324  0.00  0.00    +0.000 N 
ATOM     32  C   UNL     1      -2.823  14.105  -3.682  0.00  0.00    +0.000 A 
ATOM     33  C   UNL     1      -3.756  14.508  -2.754  0.00  0.00    +0.000 A 
ATOM     34  C   UNL     1      -3.093  15.332  -1.818  0.00  0.00    +0.000 A 
ATOM     35  C   UNL     1      -5.200  14.204  -2.569  0.00  0.00    +0.000 C 
ATOM     36  C   UNL     1      -5.899  15.324  -1.708  0.00  0.00    +0.000 C 
ATOM     37  H   UNL     1      -0.746  14.537  -3.822  0.00  0.00    +0.000 HD
ENDBRANCH  16  23
ENDBRANCH   1  18
BRANCH   4  38
ATOM     38  O   UNL     1      -7.347  20.779  -0.871  0.00  0.00    +0.000 OA
ATOM     39  H   UNL     1      -7.575  21.454  -1.531  0.00  0.00    +0.000 HD
ENDBRANCH   4  38
BRANCH  12  40
ATOM     40  C   UNL     1      -4.397  22.051  -0.944  0.00  0.00    +0.000 C 
BRANCH  40  41
ATOM     41  C   UNL     1      -3.009  21.744  -0.428  0.00  0.00    +0.000 A 
ATOM     42  C   UNL     1      -2.379  20.539  -0.770  0.00  0.00    +0.000 A 
ATOM     43  C   UNL     1      -1.105  20.244  -0.286  0.00  0.00    +0.000 A 
ATOM     44  C   UNL     1      -0.448  21.148   0.547  0.00  0.00    +0.000 A 
ATOM     45  C   UNL     1      -1.068  22.346   0.899  0.00  0.00    +0.000 A 
ATOM     46  C   UNL     1      -2.343  22.643   0.415  0.00  0.00    +0.000 A 
ENDBRANCH  40  41
ENDBRANCH  12  40
TORSDOF 5
ENDMDL
MODEL 5
REMARK VINA RESULT:    -8.613      2.754      5.142
REMARK INTER + INTRA:         -12.490
REMARK INTER:                 -11.280
REMARK INTRA:                  -1.209
REMARK UNBOUND:                -1.611
REMARK  Name = CHEMBL442_ERGOTAMINE
REMARK  7 active torsions:
REMARK  status: ('A' for Active; 'I' for Inactive)
REMARK    1  A    between atoms: C_1  and  N_2
REMARK    2  A    between atoms: C_4  and  C_5
REMARK    3  A    between atoms: N_7  and  C_8
REMARK    4  A    between atoms: C_8  and  C_9
REMARK    5  A    between atoms: C_11  and  O_12
REMARK    6  A    between atoms: C_20  and  C_21
REMARK    7  A    between atoms: C_21  and  C_22
REMARK                            x       y       z     vdW  Elec       q    Type
REMARK                         _______ _______ _______ _____ _____    ______ ____
ROOT
ATOM      1  C   UNL     1      -5.400  13.791  -1.904  0.00  0.00    +0.000 C 
ATOM      2  C   UNL     1      -4.620  12.498  -1.716  0.00  0.00    +0.000 C 
ATOM      3  O   UNL     1      -6.194  13.717  -3.097  0.00  0.00    +0.000 OA
ATOM      4  C   UNL     1      -7.472  14.248  -2.806  0.00  0.00    +0.000 C 
ATOM      5  C   UNL     1      -8.595  13.464  -3.505  0.00  0.00    +0.000 C 
ATOM      6  C   UNL     1      -8.754  13.662  -5.011  0.00  0.00    +0.000 C 
ATOM      7  C   UNL     1     -10.199  13.213  -5.243  0.00  0.00    +0.000 C 
ATOM      8  C   UNL     1     -10.935  13.747  -4.018  0.00  0.00    +0.000 C 
ATOM      9  N   UNL     1      -9.919  13.802  -2.986  0.00  0.00    +0.000 N 
ATOM     10  C   UNL     1     -10.165  14.232  -1.697  0.00  0.00    +0.000 C 
ATOM     11  O   UNL     1     -11.314  14.467  -1.319  0.00  0.00    +0.000 OA
ATOM     12  C   UNL     1      -8.926  14.447  -0.767  0.00  0.00    +0.000 C 
ATOM     13  N   UNL     1      -7.646  14.117  -1.405  0.00  0.00    +0.000 N 
ATOM     14  C   UNL     1      -6.438  13.953  -0.784  0.00  0.00    +0.000 C 
ATOM     15  O   UNL     1      -6.215  14.004   0.414  0.00  0.00    +0.000 OA
ENDROOT
BRANCH   1  18
ATOM     16  C   UNL     1      -3.771  15.309  -3.011  0.00  0.00    +0.000 C 
ATOM     17  O   UNL     1      -3.769  14.694  -4.073  0.00  0.00    +0.000 OA
ATOM     18  N   UNL     1      -4.566  14.972  -1.941  0.00  0.00    +0.000 N 
ATOM     19  H   UNL     1      -4.377  15.414  -1.048  0.00  0.00    +0.000 HD
BRANCH  16  23
ATOM     20  C   UNL     1      -2.207  19.509  -2.917  0.00  0.00    +0.000 C 
ATOM     21  N   UNL     1      -3.046  18.902  -1.882  0.00  0.00    +0.000 NA
ATOM     22  C   UNL     1      -3.789  17.744  -2.415  0.00  0.00    +0.000 C 
ATOM     23  C   UNL     1      -2.896  16.551  -2.809  0.00  0.00    +0.000 C 
ATOM     24  C   UNL     1      -1.816  16.277  -1.788  0.00  0.00    +0.000 C 
ATOM     25  C   UNL     1      -1.565  17.125  -0.771  0.00  0.00    +0.000 C 
ATOM     26  C   UNL     1      -0.616  16.768   0.313  0.00  0.00    +0.000 A 
ATOM     27  C   UNL     1      -0.101  15.504   0.636  0.00  0.00    +0.000 A 
ATOM     28  C   UNL     1       0.750  15.333   1.738  0.00  0.00    +0.000 A 
ATOM     29  C   UNL     1       1.116  16.407   2.562  0.00  0.00    +0.000 A 
ATOM     30  C   UNL     1       0.594  17.659   2.232  0.00  0.00    +0.000 A 
ATOM     31  N   UNL     1       0.738  18.900   2.816  0.00  0.00    +0.000 N 
ATOM     32  C   UNL     1       0.030  19.847   2.108  0.00  0.00    +0.000 A 
ATOM     33  C   UNL     1      -0.583  19.204   1.058  0.00  0.00    +0.000 A 
ATOM     34  C   UNL     1      -0.239  17.836   1.140  0.00  0.00    +0.000 A 
ATOM     35  C   UNL     1      -1.429  19.679  -0.069  0.00  0.00    +0.000 C 
ATOM     36  C   UNL     1      -2.298  18.501  -0.650  0.00  0.00    +0.000 C 
ATOM     37  H   UNL     1       1.292  19.086   3.640  0.00  0.00    +0.000 HD
ENDBRANCH  16  23
ENDBRANCH   1  18
BRANCH   4  38
ATOM     38  O   UNL     1      -7.477  15.625  -3.102  0.00  0.00    +0.000 OA
ATOM     39  H   UNL     1      -7.719  15.674  -4.040  0.00  0.00    +0.000 HD
ENDBRANCH   4  38
BRANCH  12  40
ATOM     40  C   UNL     1      -8.928  15.903  -0.248  0.00  0.00    +0.000 C 
BRANCH  40  41
ATOM     41  C   UNL     1      -8.782  15.990   1.254  0.00  0.00    +0.000 A 
ATOM     42  C   UNL     1      -9.515  15.131   2.086  0.00  0.00    +0.000 A 
ATOM     43  C   UNL     1      -9.395  15.216   3.473  0.00  0.00    +0.000 A 
ATOM     44  C   UNL     1      -8.545  16.161   4.043  0.00  0.00    +0.000 A 
ATOM     45  C   UNL     1      -7.817  17.024   3.226  0.00  0.00    +0.000 A 
ATOM     46  C   UNL     1      -7.935  16.940   1.837  0.00  0.00    +0.000 A 
ENDBRANCH  40  41
ENDBRANCH  12  40
TORSDOF 5
ENDMDL
MODEL 6
REMARK VINA RESULT:    -8.556      2.780      8.937
REMARK INTER + INTRA:         -12.418
REMARK INTER:                 -11.061
REMARK INTRA:                  -1.358
REMARK UNBOUND:                -1.611
REMARK  Name = CHEMBL442_ERGOTAMINE
REMARK  7 active torsions:
REMARK  status: ('A' for Active; 'I' for Inactive)
REMARK    1  A    between atoms: C_1  and  N_2
REMARK    2  A    between atoms: C_4  and  C_5
REMARK    3  A    between atoms: N_7  and  C_8
REMARK    4  A    between atoms: C_8  and  C_9
REMARK    5  A    between atoms: C_11  and  O_12
REMARK    6  A    between atoms: C_20  and  C_21
REMARK    7  A    between atoms: C_21  and  C_22
REMARK                            x       y       z     vdW  Elec       q    Type
REMARK                         _______ _______ _______ _____ _____    ______ ____
ROOT
ATOM      1  C   UNL     1      -2.927  15.323  -2.207  0.00  0.00    +0.000 C 
ATOM      2  C   UNL     1      -2.247  14.936  -3.512  0.00  0.00    +0.000 C 
ATOM      3  O   UNL     1      -2.058  15.044  -1.099  0.00  0.00    +0.000 OA
ATOM      4  C   UNL     1      -2.120  16.142  -0.209  0.00  0.00    +0.000 C 
ATOM      5  C   UNL     1      -0.748  16.464   0.406  0.00  0.00    +0.000 C 
ATOM      6  C   UNL     1      -0.218  15.508   1.474  0.00  0.00    +0.000 C 
ATOM      7  C   UNL     1       0.809  16.379   2.202  0.00  0.00    +0.000 C 
ATOM      8  C   UNL     1       0.143  17.751   2.242  0.00  0.00    +0.000 C 
ATOM      9  N   UNL     1      -0.729  17.759   1.084  0.00  0.00    +0.000 N 
ATOM     10  C   UNL     1      -1.526  18.832   0.737  0.00  0.00    +0.000 C 
ATOM     11  O   UNL     1      -1.432  19.906   1.333  0.00  0.00    +0.000 OA
ATOM     12  C   UNL     1      -2.574  18.605  -0.402  0.00  0.00    +0.000 C 
ATOM     13  N   UNL     1      -2.532  17.257  -0.981  0.00  0.00    +0.000 N 
ATOM     14  C   UNL     1      -3.126  16.844  -2.142  0.00  0.00    +0.000 C 
ATOM     15  O   UNL     1      -3.757  17.530  -2.929  0.00  0.00    +0.000 OA
ENDROOT
BRANCH   1  18
ATOM     16  C   UNL     1      -4.468  13.379  -2.374  0.00  0.00    +0.000 C 
ATOM     17  O   UNL     1      -3.616  12.616  -2.822  0.00  0.00    +0.000 OA
ATOM     18  N   UNL     1      -4.205  14.675  -2.004  0.00  0.00    +0.000 N 
ATOM     19  H   UNL     1      -4.992  15.289  -1.818  0.00  0.00    +0.000 HD
BRANCH  16  23
ATOM     20  C   UNL     1      -8.146  11.302  -0.873  0.00  0.00    +0.000 C 
ATOM     21  N   UNL     1      -7.550  12.496  -0.270  0.00  0.00    +0.000 NA
ATOM     22  C   UNL     1      -6.132  12.631  -0.655  0.00  0.00    +0.000 C 
ATOM     23  C   UNL     1      -5.913  12.917  -2.154  0.00  0.00    +0.000 C 
ATOM     24  C   UNL     1      -6.884  13.941  -2.695  0.00  0.00    +0.000 C 
ATOM     25  C   UNL     1      -7.936  14.375  -1.974  0.00  0.00    +0.000 C 
ATOM     26  C   UNL     1      -8.786  15.495  -2.450  0.00  0.00    +0.000 A 
ATOM     27  C   UNL     1      -8.508  16.428  -3.460  0.00  0.00    +0.000 A 
ATOM     28  C   UNL     1      -9.407  17.466  -3.747  0.00  0.00    +0.000 A 
ATOM     29  C   UNL     1     -10.608  17.621  -3.041  0.00  0.00    +0.000 A 
ATOM     30  C   UNL     1     -10.872  16.687  -2.037  0.00  0.00    +0.000 A 
ATOM     31  N   UNL     1     -11.929  16.548  -1.163  0.00  0.00    +0.000 N 
ATOM     32  C   UNL     1     -11.740  15.447  -0.355  0.00  0.00    +0.000 A 
ATOM     33  C   UNL     1     -10.541  14.876  -0.711  0.00  0.00    +0.000 A 
ATOM     34  C   UNL     1      -9.993  15.654  -1.754  0.00  0.00    +0.000 A 
ATOM     35  C   UNL     1      -9.820  13.659  -0.250  0.00  0.00    +0.000 C 
ATOM     36  C   UNL     1      -8.283  13.763  -0.577  0.00  0.00    +0.000 C 
ATOM     37  H   UNL     1     -12.731  17.162  -1.129  0.00  0.00    +0.000 HD
ENDBRANCH  16  23
ENDBRANCH   1  18
BRANCH   4  38
ATOM     38  O   UNL     1      -3.125  15.902   0.749  0.00  0.00    +0.000 OA
ATOM     39  H   UNL     1      -3.206  14.935   0.784  0.00  0.00    +0.000 HD
ENDBRANCH   4  38
BRANCH  12  40
ATOM     40  C   UNL     1      -3.985  18.936   0.133  0.00  0.00    +0.000 C 
BRANCH  40  41
ATOM     41  C   UNL     1      -4.870  19.584  -0.908  0.00  0.00    +0.000 A 
ATOM     42  C   UNL     1      -4.395  20.666  -1.662  0.00  0.00    +0.000 A 
ATOM     43  C   UNL     1      -5.211  21.278  -2.614  0.00  0.00    +0.000 A 
ATOM     44  C   UNL     1      -6.510  20.817  -2.818  0.00  0.00    +0.000 A 
ATOM     45  C   UNL     1      -6.994  19.747  -2.069  0.00  0.00    +0.000 A 
ATOM     46  C   UNL     1      -6.178  19.133  -1.117  0.00  0.00    +0.000 A 
ENDBRANCH  40  41
ENDBRANCH  12  40
TORSDOF 5
ENDMDL
MODEL 7
REMARK VINA RESULT:    -8.010      3.277      8.837
REMARK INTER + INTRA:         -11.728
REMARK INTER:                 -10.833
REMARK INTRA:                  -0.895
REMARK UNBOUND:                -1.611
REMARK  Name = CHEMBL442_ERGOTAMINE
REMARK  7 active torsions:
REMARK  status: ('A' for Active; 'I' for Inactive)
REMARK    1  A    between atoms: C_1  and  N_2
REMARK    2  A    between atoms: C_4  and  C_5
REMARK    3  A    between atoms: N_7  and  C_8
REMARK    4  A    between atoms: C_8  and  C_9
REMARK    5  A    between atoms: C_11  and  O_12
REMARK    6  A    between atoms: C_20  and  C_21
REMARK    7  A    between atoms: C_21  and  C_22
REMARK                            x       y       z     vdW  Elec       q    Type
REMARK                         _______ _______ _______ _____ _____    ______ ____
ROOT
ATOM      1  C   UNL     1      -5.721  17.630   0.206  0.00  0.00    +0.000 C 
ATOM      2  C   UNL     1      -6.582  17.275   1.410  0.00  0.00    +0.000 C 
ATOM      3  O   UNL     1      -6.296  18.737  -0.501  0.00  0.00    +0.000 OA
ATOM      4  C   UNL     1      -5.251  19.627  -0.845  0.00  0.00    +0.000 C 
ATOM      5  C   UNL     1      -5.680  21.098  -0.714  0.00  0.00    +0.000 C 
ATOM      6  C   UNL     1      -6.625  21.650  -1.780  0.00  0.00    +0.000 C 
ATOM      7  C   UNL     1      -6.397  23.158  -1.662  0.00  0.00    +0.000 C 
ATOM      8  C   UNL     1      -4.895  23.269  -1.415  0.00  0.00    +0.000 C 
ATOM      9  N   UNL     1      -4.546  22.018  -0.771  0.00  0.00    +0.000 N 
ATOM     10  C   UNL     1      -3.264  21.702  -0.367  0.00  0.00    +0.000 C 
ATOM     11  O   UNL     1      -2.363  22.540  -0.413  0.00  0.00    +0.000 OA
ATOM     12  C   UNL     1      -3.006  20.232   0.103  0.00  0.00    +0.000 C 
ATOM     13  N   UNL     1      -4.205  19.386   0.081  0.00  0.00    +0.000 N 
ATOM     14  C   UNL     1      -4.356  18.161   0.668  0.00  0.00    +0.000 C 
ATOM     15  O   UNL     1      -3.538  17.570   1.356  0.00  0.00    +0.000 OA
ENDROOT
BRANCH   1  18
ATOM     16  C   UNL     1      -6.510  15.946  -1.445  0.00  0.00    +0.000 C 
ATOM     17  O   UNL     1      -7.659  16.377  -1.484  0.00  0.00    +0.000 OA
ATOM     18  N   UNL     1      -5.508  16.524  -0.702  0.00  0.00    +0.000 N 
ATOM     19  H   UNL     1      -4.644  16.006  -0.581  0.00  0.00    +0.000 HD
BRANCH  16  23
ATOM     20  C   UNL     1      -4.602  12.140  -2.846  0.00  0.00    +0.000 C 
ATOM     21  N   UNL     1      -5.823  12.221  -2.042  0.00  0.00    +0.000 NA
ATOM     22  C   UNL     1      -5.908  13.515  -1.339  0.00  0.00    +0.000 C 
ATOM     23  C   UNL     1      -6.089  14.727  -2.273  0.00  0.00    +0.000 C 
ATOM     24  C   UNL     1      -7.091  14.464  -3.373  0.00  0.00    +0.000 C 
ATOM     25  C   UNL     1      -7.591  13.233  -3.602  0.00  0.00    +0.000 C 
ATOM     26  C   UNL     1      -8.691  13.018  -4.575  0.00  0.00    +0.000 A 
ATOM     27  C   UNL     1      -9.550  13.972  -5.141  0.00  0.00    +0.000 A 
ATOM     28  C   UNL     1     -10.582  13.586  -6.009  0.00  0.00    +0.000 A 
ATOM     29  C   UNL     1     -10.804  12.242  -6.342  0.00  0.00    +0.000 A 
ATOM     30  C   UNL     1      -9.944  11.302  -5.769  0.00  0.00    +0.000 A 
ATOM     31  N   UNL     1      -9.882   9.928  -5.871  0.00  0.00    +0.000 N 
ATOM     32  C   UNL     1      -8.834   9.440  -5.120  0.00  0.00    +0.000 A 
ATOM     33  C   UNL     1      -8.219  10.515  -4.522  0.00  0.00    +0.000 A 
ATOM     34  C   UNL     1      -8.917  11.677  -4.919  0.00  0.00    +0.000 A 
ATOM     35  C   UNL     1      -7.023  10.643  -3.647  0.00  0.00    +0.000 C 
ATOM     36  C   UNL     1      -7.079  11.981  -2.817  0.00  0.00    +0.000 C 
ATOM     37  H   UNL     1     -10.510   9.365  -6.426  0.00  0.00    +0.000 HD
ENDBRANCH  16  23
ENDBRANCH   1  18
BRANCH   4  38
ATOM     38  O   UNL     1      -4.765  19.294  -2.124  0.00  0.00    +0.000 OA
ATOM     39  H   UNL     1      -4.953  20.074  -2.670  0.00  0.00    +0.000 HD
ENDBRANCH   4  38
BRANCH  12  40
ATOM     40  C   UNL     1      -1.876  19.617  -0.754  0.00  0.00    +0.000 C 
BRANCH  40  41
ATOM     41  C   UNL     1      -0.839  18.893   0.075  0.00  0.00    +0.000 A 
ATOM     42  C   UNL     1      -0.321  19.489   1.234  0.00  0.00    +0.000 A 
ATOM     43  C   UNL     1       0.646  18.832   1.995  0.00  0.00    +0.000 A 
ATOM     44  C   UNL     1       1.108  17.577   1.604  0.00  0.00    +0.000 A 
ATOM     45  C   UNL     1       0.604  16.980   0.450  0.00  0.00    +0.000 A 
ATOM     46  C   UNL     1      -0.364  17.635  -0.312  0.00  0.00    +0.000 A 
ENDBRANCH  40  41
ENDBRANCH  12  40
TORSDOF 5
ENDMDL
MODEL 8
REMARK VINA RESULT:    -7.963      2.721      4.102
REMARK INTER + INTRA:         -11.669
REMARK INTER:                 -10.853
REMARK INTRA:                  -0.815
REMARK UNBOUND:                -1.611
REMARK  Name = CHEMBL442_ERGOTAMINE
REMARK  7 active torsions:
REMARK  status: ('A' for Active; 'I' for Inactive)
REMARK    1  A    between atoms: C_1  and  N_2
REMARK    2  A    between atoms: C_4  and  C_5
REMARK    3  A    between atoms: N_7  and  C_8
REMARK    4  A    between atoms: C_8  and  C_9
REMARK    5  A    between atoms: C_11  and  O_12
REMARK    6  A    between atoms: C_20  and  C_21
REMARK    7  A    between atoms: C_21  and  C_22
REMARK                            x       y       z     vdW  Elec       q    Type
REMARK                         _______ _______ _______ _____ _____    ______ ____
ROOT
ATOM      1  C   UNL     1      -6.768  22.650  -0.527  0.00  0.00    +0.000 C 
ATOM      2  C   UNL     1      -7.108  22.841  -1.998  0.00  0.00    +0.000 C 
ATOM      3  O   UNL     1      -7.371  23.689   0.256  0.00  0.00    +0.000 OA
ATOM      4  C   UNL     1      -7.924  23.097   1.415  0.00  0.00    +0.000 C 
ATOM      5  C   UNL     1      -9.266  23.739   1.806  0.00  0.00    +0.000 C 
ATOM      6  C   UNL     1      -9.220  25.134   2.428  0.00  0.00    +0.000 C 
ATOM      7  C   UNL     1     -10.566  25.208   3.151  0.00  0.00    +0.000 C 
ATOM      8  C   UNL     1     -10.743  23.800   3.713  0.00  0.00    +0.000 C 
ATOM      9  N   UNL     1      -9.990  22.957   2.806  0.00  0.00    +0.000 N 
ATOM     10  C   UNL     1      -9.888  21.587   2.948  0.00  0.00    +0.000 C 
ATOM     11  O   UNL     1     -10.555  20.988   3.793  0.00  0.00    +0.000 OA
ATOM     12  C   UNL     1      -8.861  20.849   2.027  0.00  0.00    +0.000 C 
ATOM     13  N   UNL     1      -8.162  21.737   1.092  0.00  0.00    +0.000 N 
ATOM     14  C   UNL     1      -7.418  21.365   0.006  0.00  0.00    +0.000 C 
ATOM     15  O   UNL     1      -7.240  20.231  -0.408  0.00  0.00    +0.000 OA
ENDROOT
BRANCH   1  18
ATOM     16  C   UNL     1      -4.450  21.914  -1.051  0.00  0.00    +0.000 C 
ATOM     17  O   UNL     1      -4.757  21.366  -2.106  0.00  0.00    +0.000 OA
ATOM     18  N   UNL     1      -5.346  22.598  -0.264  0.00  0.00    +0.000 N 
ATOM     19  H   UNL     1      -5.055  22.863   0.672  0.00  0.00    +0.000 HD
BRANCH  16  23
ATOM     20  C   UNL     1      -0.662  22.811   1.171  0.00  0.00    +0.000 C 
ATOM     21  N   UNL     1      -1.710  21.898   1.632  0.00  0.00    +0.000 NA
ATOM     22  C   UNL     1      -2.997  22.194   0.972  0.00  0.00    +0.000 C 
ATOM     23  C   UNL     1      -3.004  21.911  -0.543  0.00  0.00    +0.000 C 
ATOM     24  C   UNL     1      -2.325  20.606  -0.890  0.00  0.00    +0.000 C 
ATOM     25  C   UNL     1      -1.624  19.903   0.021  0.00  0.00    +0.000 C 
ATOM     26  C   UNL     1      -1.101  18.549  -0.288  0.00  0.00    +0.000 A 
ATOM     27  C   UNL     1      -1.462  17.697  -1.342  0.00  0.00    +0.000 A 
ATOM     28  C   UNL     1      -0.904  16.416  -1.455  0.00  0.00    +0.000 A 
ATOM     29  C   UNL     1       0.028  15.930  -0.526  0.00  0.00    +0.000 A 
ATOM     30  C   UNL     1       0.377  16.787   0.520  0.00  0.00    +0.000 A 
ATOM     31  N   UNL     1       1.236  16.634   1.588  0.00  0.00    +0.000 N 
ATOM     32  C   UNL     1       1.257  17.781   2.353  0.00  0.00    +0.000 A 
ATOM     33  C   UNL     1       0.393  18.680   1.771  0.00  0.00    +0.000 A 
ATOM     34  C   UNL     1      -0.164  18.057   0.633  0.00  0.00    +0.000 A 
ATOM     35  C   UNL     1       0.023  20.085   2.091  0.00  0.00    +0.000 C 
ATOM     36  C   UNL     1      -1.375  20.451   1.464  0.00  0.00    +0.000 C 
ATOM     37  H   UNL     1       1.779  15.803   1.774  0.00  0.00    +0.000 HD
ENDBRANCH  16  23
ENDBRANCH   1  18
BRANCH   4  38
ATOM     38  O   UNL     1      -6.966  23.121   2.447  0.00  0.00    +0.000 OA
ATOM     39  H   UNL     1      -6.112  23.169   1.989  0.00  0.00    +0.000 HD
ENDBRANCH   4  38
BRANCH  12  40
ATOM     40  C   UNL     1      -7.859  20.069   2.907  0.00  0.00    +0.000 C 
BRANCH  40  41
ATOM     41  C   UNL     1      -7.979  18.570   2.746  0.00  0.00    +0.000 A 
ATOM     42  C   UNL     1      -6.996  17.855   2.048  0.00  0.00    +0.000 A 
ATOM     43  C   UNL     1      -7.108  16.474   1.884  0.00  0.00    +0.000 A 
ATOM     44  C   UNL     1      -8.204  15.796   2.412  0.00  0.00    +0.000 A 
ATOM     45  C   UNL     1      -9.191  16.498   3.101  0.00  0.00    +0.000 A 
ATOM     46  C   UNL     1      -9.080  17.880   3.267  0.00  0.00    +0.000 A 
ENDBRANCH  40  41
ENDBRANCH  12  40
TORSDOF 5
ENDMDL
MODEL 9
REMARK VINA RESULT:    -7.699      4.116      9.654
REMARK INTER + INTRA:         -11.336
REMARK INTER:                 -10.453
REMARK INTRA:                  -0.883
REMARK UNBOUND:                -1.611
REMARK  Name = CHEMBL442_ERGOTAMINE
REMARK  7 active torsions:
REMARK  status: ('A' for Active; 'I' for Inactive)
REMARK    1  A    between atoms: C_1  and  N_2
REMARK    2  A    between atoms: C_4  and  C_5
REMARK    3  A    between atoms: N_7  and  C_8
REMARK    4  A    between atoms: C_8  and  C_9
REMARK    5  A    between atoms: C_11  and  O_12
REMARK    6  A    between atoms: C_20  and  C_21
REMARK    7  A    between atoms: C_21  and  C_22
REMARK                            x       y       z     vdW  Elec       q    Type
REMARK                         _______ _______ _______ _____ _____    ______ ____
ROOT
ATOM      1  C   UNL     1      -6.529  16.274  -0.494  0.00  0.00    +0.000 C 
ATOM      2  C   UNL     1      -7.385  16.087   0.751  0.00  0.00    +0.000 C 
ATOM      3  O   UNL     1      -6.958  17.437  -1.215  0.00  0.00    +0.000 OA
ATOM      4  C   UNL     1      -5.805  18.147  -1.626  0.00  0.00    +0.000 C 
ATOM      5  C   UNL     1      -6.000  19.669  -1.527  0.00  0.00    +0.000 C 
ATOM      6  C   UNL     1      -6.893  20.330  -2.576  0.00  0.00    +0.000 C 
ATOM      7  C   UNL     1      -6.434  21.788  -2.515  0.00  0.00    +0.000 C 
ATOM      8  C   UNL     1      -4.924  21.675  -2.326  0.00  0.00    +0.000 C 
ATOM      9  N   UNL     1      -4.742  20.403  -1.655  0.00  0.00    +0.000 N 
ATOM     10  C   UNL     1      -3.508  19.905  -1.287  0.00  0.00    +0.000 C 
ATOM     11  O   UNL     1      -2.493  20.594  -1.393  0.00  0.00    +0.000 OA
ATOM     12  C   UNL     1      -3.457  18.426  -0.780  0.00  0.00    +0.000 C 
ATOM     13  N   UNL     1      -4.770  17.774  -0.731  0.00  0.00    +0.000 N 
ATOM     14  C   UNL     1      -5.082  16.602  -0.099  0.00  0.00    +0.000 C 
ATOM     15  O   UNL     1      -4.336  15.911   0.577  0.00  0.00    +0.000 OA
ENDROOT
BRANCH   1  18
ATOM     16  C   UNL     1      -7.630  14.691  -2.064  0.00  0.00    +0.000 C 
ATOM     17  O   UNL     1      -8.699  15.295  -2.079  0.00  0.00    +0.000 OA
ATOM     18  N   UNL     1      -6.525  15.125  -1.372  0.00  0.00    +0.000 N 
ATOM     19  H   UNL     1      -5.747  14.482  -1.263  0.00  0.00    +0.000 HD
BRANCH  16  23
ATOM     20  C   UNL     1      -6.772  10.463  -3.281  0.00  0.00    +0.000 C 
ATOM     21  N   UNL     1      -8.061  10.949  -2.784  0.00  0.00    +0.000 NA
ATOM     22  C   UNL     1      -7.895  12.199  -2.017  0.00  0.00    +0.000 C 
ATOM     23  C   UNL     1      -7.434  13.400  -2.866  0.00  0.00    +0.000 C 
ATOM     24  C   UNL     1      -8.159  13.484  -4.189  0.00  0.00    +0.000 C 
ATOM     25  C   UNL     1      -8.957  12.491  -4.629  0.00  0.00    +0.000 C 
ATOM     26  C   UNL     1      -9.788  12.654  -5.849  0.00  0.00    +0.000 A 
ATOM     27  C   UNL     1     -10.121  13.839  -6.521  0.00  0.00    +0.000 A 
ATOM     28  C   UNL     1     -10.970  13.818  -7.637  0.00  0.00    +0.000 A 
ATOM     29  C   UNL     1     -11.525  12.625  -8.122  0.00  0.00    +0.000 A 
ATOM     30  C   UNL     1     -11.189  11.453  -7.441  0.00  0.00    +0.000 A 
ATOM     31  N   UNL     1     -11.552  10.137  -7.637  0.00  0.00    +0.000 N 
ATOM     32  C   UNL     1     -10.941   9.328  -6.702  0.00  0.00    +0.000 A 
ATOM     33  C   UNL     1     -10.181  10.138  -5.890  0.00  0.00    +0.000 A 
ATOM     34  C   UNL     1     -10.342  11.465  -6.345  0.00  0.00    +0.000 A 
ATOM     35  C   UNL     1      -9.267   9.860  -4.750  0.00  0.00    +0.000 C 
ATOM     36  C   UNL     1      -9.091  11.142  -3.851  0.00  0.00    +0.000 C 
ATOM     37  H   UNL     1     -12.169   9.815  -8.369  0.00  0.00    +0.000 HD
ENDBRANCH  16  23
ENDBRANCH   1  18
BRANCH   4  38
ATOM     38  O   UNL     1      -5.427  17.709  -2.910  0.00  0.00    +0.000 OA
ATOM     39  H   UNL     1      -5.753  16.796  -2.964  0.00  0.00    +0.000 HD
ENDBRANCH   4  38
BRANCH  12  40
ATOM     40  C   UNL     1      -2.470  17.624  -1.656  0.00  0.00    +0.000 C 
BRANCH  40  41
ATOM     41  C   UNL     1      -1.216  17.223  -0.912  0.00  0.00    +0.000 A 
ATOM     42  C   UNL     1      -0.488  16.094  -1.312  0.00  0.00    +0.000 A 
ATOM     43  C   UNL     1       0.661  15.711  -0.620  0.00  0.00    +0.000 A 
ATOM     44  C   UNL     1       1.092  16.450   0.479  0.00  0.00    +0.000 A 
ATOM     45  C   UNL     1       0.372  17.570   0.890  0.00  0.00    +0.000 A 
ATOM     46  C   UNL     1      -0.778  17.955   0.199  0.00  0.00    +0.000 A 
ENDBRANCH  40  41
ENDBRANCH  12  40
TORSDOF 5
ENDMDL
MODEL 10
REMARK VINA RESULT:    -7.679      3.340      8.674
REMARK INTER + INTRA:         -11.310
REMARK INTER:                 -10.807
REMARK INTRA:                  -0.504
REMARK UNBOUND:                -1.611
REMARK  Name = CHEMBL442_ERGOTAMINE
REMARK  7 active torsions:
REMARK  status: ('A' for Active; 'I' for Inactive)
REMARK    1  A    between atoms: C_1  and  N_2
REMARK    2  A    between atoms: C_4  and  C_5
REMARK    3  A    between atoms: N_7  and  C_8
REMARK    4  A    between atoms: C_8  and  C_9
REMARK    5  A    between atoms: C_11  and  O_12
REMARK    6  A    between atoms: C_20  and  C_21
REMARK    7  A    between atoms: C_21  and  C_22
REMARK                            x       y       z     vdW  Elec       q    Type
REMARK                         _______ _______ _______ _____ _____    ______ ____
ROOT
ATOM      1  C   UNL     1      -7.543  17.127   0.352  0.00  0.00    +0.000 C 
ATOM      2  C   UNL     1      -8.401  17.106   1.609  0.00  0.00    +0.000 C 
ATOM      3  O   UNL     1      -7.524  18.447  -0.208  0.00  0.00    +0.000 OA
ATOM      4  C   UNL     1      -6.194  18.739  -0.592  0.00  0.00    +0.000 C 
ATOM      5  C   UNL     1      -5.821  20.204  -0.309  0.00  0.00    +0.000 C 
ATOM      6  C   UNL     1      -6.419  21.269  -1.228  0.00  0.00    +0.000 C 
ATOM      7  C   UNL     1      -5.459  22.444  -1.023  0.00  0.00    +0.000 C 
ATOM      8  C   UNL     1      -4.093  21.771  -0.926  0.00  0.00    +0.000 C 
ATOM      9  N   UNL     1      -4.383  20.446  -0.416  0.00  0.00    +0.000 N 
ATOM     10  C   UNL     1      -3.412  19.495  -0.172  0.00  0.00    +0.000 C 
ATOM     11  O   UNL     1      -2.217  19.779  -0.250  0.00  0.00    +0.000 OA
ATOM     12  C   UNL     1      -3.900  18.046   0.159  0.00  0.00    +0.000 C 
ATOM     13  N   UNL     1      -5.361  17.909   0.199  0.00  0.00    +0.000 N 
ATOM     14  C   UNL     1      -6.074  16.859   0.707  0.00  0.00    +0.000 C 
ATOM     15  O   UNL     1      -5.626  15.867   1.261  0.00  0.00    +0.000 OA
ENDROOT
BRANCH   1  18
ATOM     16  C   UNL     1      -8.340  14.883  -0.365  0.00  0.00    +0.000 C 
ATOM     17  O   UNL     1      -8.452  14.448   0.778  0.00  0.00    +0.000 OA
ATOM     18  N   UNL     1      -7.962  16.173  -0.652  0.00  0.00    +0.000 N 
ATOM     19  H   UNL     1      -7.719  16.398  -1.611  0.00  0.00    +0.000 HD
BRANCH  16  23
ATOM     20  C   UNL     1      -8.746  13.286  -4.534  0.00  0.00    +0.000 C 
ATOM     21  N   UNL     1      -7.559  13.138  -3.689  0.00  0.00    +0.000 NA
ATOM     22  C   UNL     1      -7.534  14.161  -2.626  0.00  0.00    +0.000 C 
ATOM     23  C   UNL     1      -8.659  14.010  -1.584  0.00  0.00    +0.000 C 
ATOM     24  C   UNL     1      -8.869  12.574  -1.164  0.00  0.00    +0.000 C 
ATOM     25  C   UNL     1      -8.268  11.550  -1.802  0.00  0.00    +0.000 C 
ATOM     26  C   UNL     1      -8.353  10.162  -1.282  0.00  0.00    +0.000 A 
ATOM     27  C   UNL     1      -8.749   9.735  -0.007  0.00  0.00    +0.000 A 
ATOM     28  C   UNL     1      -8.717   8.376   0.339  0.00  0.00    +0.000 A 
ATOM     29  C   UNL     1      -8.286   7.393  -0.564  0.00  0.00    +0.000 A 
ATOM     30  C   UNL     1      -7.892   7.832  -1.830  0.00  0.00    +0.000 A 
ATOM     31  N   UNL     1      -7.418   7.154  -2.933  0.00  0.00    +0.000 N 
ATOM     32  C   UNL     1      -7.175   8.034  -3.966  0.00  0.00    +0.000 A 
ATOM     33  C   UNL     1      -7.492   9.295  -3.517  0.00  0.00    +0.000 A 
ATOM     34  C   UNL     1      -7.930   9.171  -2.180  0.00  0.00    +0.000 A 
ATOM     35  C   UNL     1      -7.491  10.633  -4.167  0.00  0.00    +0.000 C 
ATOM     36  C   UNL     1      -7.406  11.777  -3.087  0.00  0.00    +0.000 C 
ATOM     37  H   UNL     1      -7.280   6.155  -2.977  0.00  0.00    +0.000 HD
ENDBRANCH  16  23
ENDBRANCH   1  18
BRANCH   4  38
ATOM     38  O   UNL     1      -6.009  18.360  -1.936  0.00  0.00    +0.000 OA
ATOM     39  H   UNL     1      -5.400  19.025  -2.297  0.00  0.00    +0.000 HD
ENDBRANCH   4  38
BRANCH  12  40
ATOM     40  C   UNL     1      -3.278  17.058  -0.854  0.00  0.00    +0.000 C 
BRANCH  40  41
ATOM     41  C   UNL     1      -1.923  16.548  -0.418  0.00  0.00    +0.000 A 
ATOM     42  C   UNL     1      -0.871  16.463  -1.341  0.00  0.00    +0.000 A 
ATOM     43  C   UNL     1       0.378  15.980  -0.948  0.00  0.00    +0.000 A 
ATOM     44  C   UNL     1       0.586  15.573   0.368  0.00  0.00    +0.000 A 
ATOM     45  C   UNL     1      -0.455  15.646   1.291  0.00  0.00    +0.000 A 
ATOM     46  C   UNL     1      -1.705  16.130   0.901  0.00  0.00    +0.000 A 
ENDBRANCH  40  41
ENDBRANCH  12  40
TORSDOF 5
ENDMDL
