          AutoDock 4.2 Release 4.2.6   
         (C) 1989-2012 The Scripps Research Institute
        AutoDock comes with ABSOLUTELY NO WARRANTY.
        AutoDock is free software, and you are welcome
        to redistribute it under certain conditions;
        for details type 'autodock4 -C'

                     main.cc  $Revision: 1.213 $

                   Compiled on Jul 18 2014 at 18:34:22


This file was created at:			9:39 15" a.m., 04/02/2026
                   on host:		"Weiman-HP-Z8-G4"
Current Working Directory = "/host_pwd/amdock_leishmaniasis_pdligand/input"

      ________________________________________________________________

                   SETTING UP DEFAULT PARAMETER LIBRARY
      ________________________________________________________________


Random number generator was seeded with values 11922, 1775122755.
Docking parameter file (DPF) used for this docking:		final_struct_1LML_clean_h_TZ.dpf
DPF> autodock_parameter_version 4.2       # used by autodock to validate parameter set

	Autodock parameter version 4.2.
DPF> parameter_file AD4Zn.dat             # parameter library filename 

Using read_parameter_library() to try to open and read "AD4Zn.dat".

DPF> outlev 1                             # diagnostic output level

Output Level = 1  ADT-COMPATIBLE OUTPUT DURING DOCKING.
DPF> intelec                              # calculate internal electrostatics

Electrostatic energies will be calculated for all non-bonds between moving atoms.
DPF> seed pid time                        # seeds for random generator

Random number generator was seeded with values 11922, 1775122755.
DPF> ligand_types C HD OA NA Pd A N       # atoms types in ligand

DPF> fld 1LML_clean_h_TZ.maps.fld         # grid_data_file

Opening Grid Map Dimensions file:		1LML_clean_h_TZ.maps.fld
Grid Point Spacing =				0.375 Angstroms

Even Number of User-specified Grid Points =	72 x-points
						72 y-points
						72 z-points

Coordinates of Central Grid Point of Maps =	(19.400, 43.900, 17.000)
Macromolecule file used to create Grid Maps =	1LML_clean_h_TZ.pdbqt
Grid Parameter file used to create Grid Maps =	1LML_clean_h_TZ.gpf
Minimum coordinates in grid = (5.900, 30.400, 3.500)
Maximum coordinates in grid = (32.900, 57.400, 30.500)

DPF> map 1LML_clean_h_TZ.C.map            # atom-specific affinity map

DPF> map 1LML_clean_h_TZ.HD.map           # atom-specific affinity map

DPF> map 1LML_clean_h_TZ.OA.map           # atom-specific affinity map

DPF> map 1LML_clean_h_TZ.NA.map           # atom-specific affinity map

DPF> map 1LML_clean_h_TZ.Pd.map           # atom-specific affinity map

DPF> map 1LML_clean_h_TZ.A.map            # atom-specific affinity map

DPF> map 1LML_clean_h_TZ.N.map            # atom-specific affinity map

DPF> elecmap 1LML_clean_h_TZ.e.map        # electrostatics map

DPF> desolvmap 1LML_clean_h_TZ.d.map      # desolvation map

DPF> move final_struct.pdbqt              # small molecule

1,4-interactions will be _ignored_ in the non-bonded internal energy calculation.

Ligand PDBQT file = "final_struct.pdbqt"

INPUT LIGAND PDBQT FILE:
________________________

INPUT-LIGAND-PDBQT: REMARK  4 active torsions:
INPUT-LIGAND-PDBQT: REMARK  status: ('A' for Active; 'I' for Inactive)
INPUT-LIGAND-PDBQT: REMARK    1  A    between atoms: C00Q_4  and  N008_28 
INPUT-LIGAND-PDBQT: REMARK    2  A    between atoms: C00Q_5  and  N008_29 
INPUT-LIGAND-PDBQT: REMARK    3  A    between atoms: C00R_6  and  N2_24 
INPUT-LIGAND-PDBQT: REMARK    4  A    between atoms: C00R_7  and  N2_25 
INPUT-LIGAND-PDBQT: ROOT
INPUT-LIGAND-PDBQT: HETATM    1 Pd02 UNK     1       2.061  11.319   0.000  1.00  2.67     0.000 Pd
INPUT-LIGAND-PDBQT: HETATM    2  C00 UNK     1       2.328  13.077   2.373  1.00  3.05     0.162 C 
INPUT-LIGAND-PDBQT: HETATM    3  C00 UNK     1       1.794   9.562  -2.373  1.00  3.05     0.162 C 
INPUT-LIGAND-PDBQT: HETATM    4  C00 UNK     1       3.461  12.232   4.416  1.00  3.12     0.285 C 
INPUT-LIGAND-PDBQT: HETATM    5  C00 UNK     1       0.661  10.406  -4.416  1.00  3.12     0.285 C 
INPUT-LIGAND-PDBQT: HETATM    6  C00 UNK     1       3.174  12.091   3.026  1.00  2.91     0.192 C 
INPUT-LIGAND-PDBQT: HETATM    7  C00 UNK     1       0.948  10.547  -3.026  1.00  2.91     0.192 C 
INPUT-LIGAND-PDBQT: HETATM    8  N00 UNK     1       1.961  12.955   1.159  1.00  3.53    -0.281 N 
INPUT-LIGAND-PDBQT: HETATM    9  N00 UNK     1       2.161   9.684  -1.159  1.00  3.53    -0.281 N 
INPUT-LIGAND-PDBQT: HETATM   10  N00 UNK     1       3.775  11.102   2.439  1.00  2.91    -0.140 NA
INPUT-LIGAND-PDBQT: HETATM   11  N00 UNK     1       0.347  11.536  -2.439  1.00  2.91    -0.140 NA
INPUT-LIGAND-PDBQT: HETATM   12  N00 UNK     1       1.995  14.202   3.106  1.00  3.87    -0.286 N 
INPUT-LIGAND-PDBQT: HETATM   13  N00 UNK     1       2.127   8.436  -3.106  1.00  3.87    -0.286 N 
INPUT-LIGAND-PDBQT: HETATM   14  N00 UNK     1       2.897  13.305   5.080  1.00  3.64    -0.268 N 
INPUT-LIGAND-PDBQT: HETATM   15  N00 UNK     1       1.225   9.333  -5.080  1.00  3.64    -0.268 N 
INPUT-LIGAND-PDBQT: HETATM   16  O00 UNK     1       1.800  15.283   5.094  1.00  5.50    -0.246 OA
INPUT-LIGAND-PDBQT: HETATM   17  O00 UNK     1       2.322   7.355  -5.094  1.00  5.50    -0.246 OA
INPUT-LIGAND-PDBQT: HETATM   18  O00 UNK     1       4.161  11.440   5.077  1.00  4.02    -0.265 OA
INPUT-LIGAND-PDBQT: HETATM   19  O00 UNK     1      -0.039  11.199  -5.077  1.00  4.02    -0.265 OA
INPUT-LIGAND-PDBQT: HETATM   20  N00 UNK     1       3.576  10.726   1.206  1.00  2.69    -0.150 N 
INPUT-LIGAND-PDBQT: HETATM   21  N00 UNK     1       0.545  11.913  -1.206  1.00  2.69    -0.150 N 
INPUT-LIGAND-PDBQT: HETATM   22  C01 UNK     1       2.218  14.340   4.457  1.00  3.63     0.332 C 
INPUT-LIGAND-PDBQT: HETATM   23  C01 UNK     1       1.904   8.298  -4.457  1.00  3.63     0.332 C 
INPUT-LIGAND-PDBQT: HETATM   24  C01 UNK     1       3.155  13.444   6.546  1.00  4.19     0.164 C 
INPUT-LIGAND-PDBQT: HETATM   25  C01 UNK     1       0.967   9.194  -6.546  1.00  4.19     0.164 C 
INPUT-LIGAND-PDBQT: HETATM   26  C01 UNK     1       1.304  15.323   2.469  1.00  6.22     0.163 C 
INPUT-LIGAND-PDBQT: HETATM   27  C01 UNK     1       2.818   7.315  -2.469  1.00  6.22     0.163 C 
INPUT-LIGAND-PDBQT: HETATM   28 BH00 UNK     1       1.631  13.658   0.792  1.00  4.26     0.188 HD
INPUT-LIGAND-PDBQT: HETATM   29 BH00 UNK     1       2.491   8.980  -0.792  1.00  4.26     0.188 HD
INPUT-LIGAND-PDBQT: ENDROOT
INPUT-LIGAND-PDBQT: BRANCH  20  30
INPUT-LIGAND-PDBQT: HETATM   30  C00 UNK     1       4.456   9.690   0.801  1.00  2.81     0.079 A 
INPUT-LIGAND-PDBQT: HETATM   31  C00 UNK     1       5.148   9.793  -0.408  1.00  3.39     0.036 A 
INPUT-LIGAND-PDBQT: HETATM   32  C01 UNK     1       5.981   8.779  -0.818  1.00  4.18     0.031 A 
INPUT-LIGAND-PDBQT: HETATM   33  C00 UNK     1       6.132   7.643  -0.056  1.00  3.61     0.025 A 
INPUT-LIGAND-PDBQT: HETATM   34  C01 UNK     1       5.485   7.531   1.135  1.00  4.33     0.031 A 
INPUT-LIGAND-PDBQT: HETATM   35  C01 UNK     1       4.663   8.538   1.602  1.00  3.52     0.036 A 
INPUT-LIGAND-PDBQT: BRANCH  33  36
INPUT-LIGAND-PDBQT: HETATM   36  N2  UNK     1       7.142   6.356  -0.630  1.00  0.31    -0.399 N 
INPUT-LIGAND-PDBQT: HETATM   37  H2a UNK     1       7.545   6.429  -1.385  1.00  0.38     0.156 HD
INPUT-LIGAND-PDBQT: HETATM   38  H2b UNK     1       7.240   5.644  -0.158  1.00  0.38     0.156 HD
INPUT-LIGAND-PDBQT: ENDBRANCH  33  36
INPUT-LIGAND-PDBQT: ENDBRANCH  20  30
INPUT-LIGAND-PDBQT: BRANCH  21  39
INPUT-LIGAND-PDBQT: HETATM   39  C00 UNK     1      -0.334  12.948  -0.801  1.00  2.81     0.079 A 
INPUT-LIGAND-PDBQT: HETATM   40  C00 UNK     1      -1.026  12.846   0.408  1.00  3.39     0.036 A 
INPUT-LIGAND-PDBQT: HETATM   41  C01 UNK     1      -1.859  13.860   0.818  1.00  4.18     0.031 A 
INPUT-LIGAND-PDBQT: HETATM   42  C00 UNK     1      -2.010  14.996   0.056  1.00  3.61     0.025 A 
INPUT-LIGAND-PDBQT: HETATM   43  C01 UNK     1      -1.363  15.108  -1.135  1.00  4.33     0.031 A 
INPUT-LIGAND-PDBQT: HETATM   44  C01 UNK     1      -0.541  14.101  -1.602  1.00  3.52     0.036 A 
INPUT-LIGAND-PDBQT: BRANCH  42  45
INPUT-LIGAND-PDBQT: HETATM   45  N2  UNK     1      -3.020  16.282   0.630  1.00  0.31    -0.399 N 
INPUT-LIGAND-PDBQT: HETATM   46  H2a UNK     1      -3.423  16.209   1.385  1.00  0.38     0.156 HD
INPUT-LIGAND-PDBQT: HETATM   47  H2b UNK     1      -3.118  16.994   0.158  1.00  0.38     0.156 HD
INPUT-LIGAND-PDBQT: ENDBRANCH  42  45
INPUT-LIGAND-PDBQT: ENDBRANCH  21  39
INPUT-LIGAND-PDBQT: TORSDOF 4
________________________________________________________________________________

Total charge on ligand                               =	+0.002 e
REMARK  4 active torsions:
REMARK  status: ('A' for Active; 'I' for Inactive)
REMARK    1  A    between atoms: C00Q_4  and  N008_28 
REMARK    2  A    between atoms: C00Q_5  and  N008_29 
REMARK    3  A    between atoms: C00R_6  and  N2_24 
REMARK    4  A    between atoms: C00R_7  and  N2_25 


Number of Rotatable Bonds in Small Molecule =	4 torsions
Number of atoms in ligand:  47

Number of non-hydrogen atoms in ligand:  41

Number of vibrational degrees of freedom of ligand:  135


Number of torsional degrees of freedom = 4
Estimated loss of torsional free energy upon binding = +1.1932 kcal/mol


DPF> about 2.061 11.319 -0.000            # small molecule center

Small molecule center of rotation =	(+2.061, +11.319, -0.000)

DPF> tran0 random                         # initial coordinates/A or random

Initial translation =			(32.064, 43.182, 8.355) Angstroms
DPF> quaternion0 random                   # initial orientation

Each run will begin with a new, random initial orientation.
Initial quaternion,  (x,y,z,w) =	( -0.836, 0.202, -0.184, -0.477 ),
DPF> dihe0 random                         # initial dihedrals (relative) or random

DPF> torsdof 4                            # torsional degrees of freedom

Number of torsional degrees of freedom = 4
Free energy coefficient for torsional degrees of freedom = 0.2983 as specified in parameter library "AD4Zn.dat".

Estimated loss of torsional free energy upon binding = +1.1932 kcal/mol

DPF> rmstol 2.0                           # cluster_tolerance/A

Maximum RMS tolerance for conformational cluster analysis = 2.00 Angstroms
DPF> extnrg 1000.0                        # external grid energy

External grid energy (beyond grid map walls) = 1000.00

DPF> e0max 0.0 10000                      # max initial energy; max number of retries

Using user-specified maximum number of retries for simanneal initialization, 10000 retries.
If the simanneal initial energy is greater than e0max, 0.000,
then a new, random initial state will be created.

DPF> ga_pop_size 150                      # number of individuals in population

A population of 150 individuals will be used
DPF> ga_num_evals 2500000                 # maximum number of energy evaluations

There will be at most 2500000 function evaluations used.
DPF> ga_num_generations 27000             # maximum number of generations

The GA will run for at most 27000 generations.
DPF> ga_elitism 1                         # number of top individuals to survive to next generation

The 1 best will be preserved each GA generation.
DPF> ga_mutation_rate 0.02                # rate of gene mutation

The mutation rate is 0.020000.
DPF> ga_crossover_rate 0.8                # rate of crossover

The crossover rate is 0.800000.
DPF> ga_window_size 10                    # 

The GA's selection window is 10 generations.
DPF> ga_cauchy_alpha 0.0                  # Alpha parameter of Cauchy distribution

The alpha parameter (for the Cauchy distribution) is being set to 0.000000.
DPF> ga_cauchy_beta 1.0                   # Beta parameter Cauchy distribution

The beta parameter (for the Cauchy distribution) is being set to 1.000000.
DPF> set_ga                               # set the above parameters for GA or LGA

DPF> sw_max_its 300                       # iterations of Solis & Wets local search

Solis & Wets algorithms will perform at most 300 iterations.
DPF> sw_max_succ 4                        # consecutive successes before changing rho

Solis & Wets algorithms expand rho every 4 in a row successes.
DPF> sw_max_fail 4                        # consecutive failures before changing rho

Solis & Wets algorithms contract rho every 4 in a row failures.
DPF> sw_rho 1.0                           # size of local search space to sample

rho is set to 1.000000.
DPF> sw_lb_rho 0.01                       # lower bound on rho

rho will never get smaller than 0.010000.
DPF> ls_search_freq 0.06                  # probability of performing local search on individual

Local search will be performed with frequency 0.060000.
DPF> set_psw1                             # set the above pseudo-Solis & Wets parameters

Creating a new Local Search object using the pseudo-Solis-Wets algorithm (pSW1) with the current settings.

DPF> unbound_model bound                  # state of unbound ligand

DPF> ga_run 25                            # do this many hybrid GA-LS runs

centering ligand on specified point: 2.061 11.319 -0.000
Furthest true ligand atom from "about" center is 7.685 Angstroms (maxrad).
Number of requested GA dockings = 25 runs
Unbound model to be used is 'same as bound' [AutoDock 4.2 default].

	BEGINNING GENETIC ALGORITHM DOCKING 1 of 25
Run: 1 Seed: 977460564 443696711 [ Run 1 of 25 GA/GALS ]
Beginning LAMARCKIAN GENETIC ALGORITHM (LGA), with a maximum of 2500000 energy evaluations.

Final-Value: -11.242


	FINAL GENETIC ALGORITHM DOCKED STATE
	_______________________________________________


Detailed state:  trans 21.696 39.956 19.273 quatxyzw -0.571903 0.363045 -0.311144 0.666569 center 2.061 11.319 -0.000 ntor 4 94.5970 -152.9158 -144.4196 -26.7298
State:	 21.696  39.956  19.273  -0.767  0.487 -0.417 96.394     94.60 -152.92 -144.42  -26.73

DOCKED: MODEL        1
DOCKED: USER    Run = 1
DOCKED: USER    DPF = final_struct_1LML_clean_h_TZ.dpf
DOCKED: USER  
DOCKED: USER    Estimated Free Energy of Binding    =   -8.83 kcal/mol  [=(1)+(2)+(3)-(4)]
DOCKED: USER    Estimated Inhibition Constant, Ki   =  337.05 nM (nanomolar)  [Temperature = 298.15 K]
DOCKED: USER    
DOCKED: USER    (1) Final Intermolecular Energy     =  -10.02 kcal/mol
DOCKED: USER        vdW + Hbond + desolv Energy     =  -10.10 kcal/mol
DOCKED: USER        Electrostatic Energy            =   +0.07 kcal/mol
DOCKED: USER    (2) Final Total Internal Energy     =   -1.22 kcal/mol
DOCKED: USER    (3) Torsional Free Energy           =   +1.19 kcal/mol
DOCKED: USER    (4) Unbound System's Energy  [=(2)] =   -1.22 kcal/mol
DOCKED: USER    
DOCKED: USER    
DOCKED: USER    NEWDPF move final_struct.pdbqt
DOCKED: USER    NEWDPF about 2.061000 11.319000 -0.000000
DOCKED: USER    NEWDPF tran0 21.695932 39.956189 19.273067
DOCKED: USER    NEWDPF quaternion0 -0.571903 0.363045 -0.311144 0.666569
DOCKED: USER    NEWDPF axisangle0 -0.767199 0.487019 -0.417395 96.394347
DOCKED: USER    NEWDPF quat0 -0.767199 0.487019 -0.417395 96.394347
DOCKED: USER    NEWDPF dihe0 94.60 -152.92 -144.42 -26.73 
DOCKED: USER  keepresnum = 1 
DOCKED: USER  
DOCKED: REMARK  4 active torsions:
DOCKED: REMARK  status: ('A' for Active; 'I' for Inactive)
DOCKED: REMARK    1  A    between atoms: C00Q_4  and  N008_28 
DOCKED: REMARK    2  A    between atoms: C00Q_5  and  N008_29 
DOCKED: REMARK    3  A    between atoms: C00R_6  and  N2_24 
DOCKED: REMARK    4  A    between atoms: C00R_7  and  N2_25 
DOCKED: USER                              x       y       z     vdW  Elec       q    Type
DOCKED: USER                           _______ _______ _______ _____ _____    ______ ____
DOCKED: ROOT
DOCKED: ATOM      1 Pd02 UNK     1      21.696  39.956  19.273 -0.02 -0.00    +0.000 Pd
DOCKED: ATOM      2  C00 UNK     1      20.078  37.878  20.636 -0.09 -0.12    +0.162 C 
DOCKED: ATOM      3  C00 UNK     1      23.313  42.034  17.911 -0.16 -0.20    +0.162 C 
DOCKED: ATOM      4  C00 UNK     1      21.132  35.730  21.302 -0.17 -0.21    +0.285 C 
DOCKED: ATOM      5  C00 UNK     1      22.260  44.182  17.244 -0.28 -0.40    +0.285 C 
DOCKED: ATOM      6  C00 UNK     1      21.272  37.082  20.871 -0.13 -0.14    +0.192 C 
DOCKED: ATOM      7  C00 UNK     1      22.120  42.830  17.675 -0.30 -0.29    +0.192 C 
DOCKED: ATOM      8  N00 UNK     1      20.135  39.060  20.162 -0.03 +0.24    -0.281 N 
DOCKED: ATOM      9  N00 UNK     1      23.256  40.853  18.385 -0.05 +0.31    -0.281 N 
DOCKED: ATOM     10  N00 UNK     1      22.494  37.512  20.797 -0.11 +0.11    -0.140 NA
DOCKED: ATOM     11  N00 UNK     1      20.898  42.401  17.749 -4.20 +0.24    -0.140 NA
DOCKED: ATOM     12  N00 UNK     1      18.869  37.325  21.020 -0.05 +0.19    -0.286 N 
DOCKED: ATOM     13  N00 UNK     1      24.523  42.587  17.526 -0.05 +0.30    -0.286 N 
DOCKED: ATOM     14  N00 UNK     1      19.850  35.237  21.459 -0.11 +0.19    -0.268 N 
DOCKED: ATOM     15  N00 UNK     1      23.541  44.675  17.088 -0.14 +0.30    -0.268 N 
DOCKED: ATOM     16  O00 UNK     1      17.611  35.525  21.600 -0.09 +0.14    -0.246 OA
DOCKED: ATOM     17  O00 UNK     1      25.780  44.387  16.947 -0.06 +0.21    -0.246 OA
DOCKED: ATOM     18  O00 UNK     1      22.085  34.956  21.519 -0.27 +0.21    -0.265 OA
DOCKED: ATOM     19  O00 UNK     1      21.306  44.957  17.027 +0.05 +0.41    -0.265 OA
DOCKED: ATOM     20  N00 UNK     1      22.856  38.673  20.327 -0.07 +0.13    -0.150 N 
DOCKED: ATOM     21  N00 UNK     1      20.535  41.239  18.219 -0.23 +0.22    -0.150 N 
DOCKED: ATOM     22  C01 UNK     1      18.703  36.011  21.392 -0.07 -0.21    +0.332 C 
DOCKED: ATOM     23  C01 UNK     1      24.689  43.901  17.154 -0.06 -0.33    +0.332 C 
DOCKED: ATOM     24  C01 UNK     1      19.687  33.809  21.870 -0.06 -0.11    +0.164 C 
DOCKED: ATOM     25  C01 UNK     1      23.705  46.103  16.676 -0.24 -0.15    +0.164 C 
DOCKED: ATOM     26  C01 UNK     1      17.645  38.126  20.989 -0.23 -0.09    +0.163 C 
DOCKED: ATOM     27  C01 UNK     1      25.747  41.787  17.558 -0.10 -0.14    +0.163 C 
DOCKED: ATOM     28 BH00 UNK     1      19.420  39.530  20.232 +0.08 -0.17    +0.188 HD
DOCKED: ATOM     29 BH00 UNK     1      23.972  40.383  18.314 +0.07 -0.19    +0.188 HD
DOCKED: ENDROOT
DOCKED: BRANCH  20  30
DOCKED: ATOM     30  C00 UNK     1      24.245  38.915  20.476 -0.08 -0.07    +0.079 A 
DOCKED: ATOM     31  C00 UNK     1      25.147  38.426  19.528 -0.15 -0.04    +0.036 A 
DOCKED: ATOM     32  C01 UNK     1      26.497  38.635  19.684 -0.17 -0.04    +0.031 A 
DOCKED: ATOM     33  C00 UNK     1      26.981  39.310  20.780 -0.10 -0.03    +0.025 A 
DOCKED: ATOM     34  C01 UNK     1      26.120  39.814  21.705 -0.06 -0.03    +0.031 A 
DOCKED: ATOM     35  C01 UNK     1      24.754  39.656  21.573 -0.05 -0.03    +0.036 A 
DOCKED: BRANCH  33  36
DOCKED: ATOM     36  N2  UNK     1      28.693  39.503  20.979 -0.04 +0.54    -0.399 N 
DOCKED: ATOM     37  H2a UNK     1      29.081  40.217  20.700 +0.02 -0.16    +0.156 HD
DOCKED: ATOM     38  H2b UNK     1      29.154  38.884  21.357 -0.11 -0.28    +0.156 HD
DOCKED: ENDBRANCH  33  36
DOCKED: ENDBRANCH  20  30
DOCKED: BRANCH  21  39
DOCKED: ATOM     39  C00 UNK     1      19.146  40.997  18.070 -0.36 -0.11    +0.079 A 
DOCKED: ATOM     40  C00 UNK     1      18.691  40.119  17.084 -0.39 -0.05    +0.036 A 
DOCKED: ATOM     41  C01 UNK     1      17.347  39.859  16.953 -0.44 -0.03    +0.031 A 
DOCKED: ATOM     42  C00 UNK     1      16.434  40.445  17.799 -0.34 -0.03    +0.025 A 
DOCKED: ATOM     43  C01 UNK     1      16.852  41.320  18.752 -0.22 -0.04    +0.031 A 
DOCKED: ATOM     44  C01 UNK     1      18.189  41.634  18.900 -0.45 -0.05    +0.036 A 
DOCKED: BRANCH  42  45
DOCKED: ATOM     45  N2  UNK     1      14.753  40.050  17.647 -0.25 +0.34    -0.399 N 
DOCKED: ATOM     46  H2a UNK     1      14.154  40.616  17.891 +0.09 -0.15    +0.156 HD
DOCKED: ATOM     47  H2b UNK     1      14.518  39.287  17.327 +0.12 -0.10    +0.156 HD
DOCKED: ENDBRANCH  42  45
DOCKED: ENDBRANCH  21  39
DOCKED: TORSDOF 4
DOCKED: TER
DOCKED: ENDMDL
________________________________________________________________________________


	BEGINNING GENETIC ALGORITHM DOCKING 2 of 25
Run: 2 Seed: 2080992774 1016669437 [ Run 2 of 25 GA/GALS ]
Beginning LAMARCKIAN GENETIC ALGORITHM (LGA), with a maximum of 2500000 energy evaluations.

Final-Value: -11.194


	FINAL GENETIC ALGORITHM DOCKED STATE
	_______________________________________________


Detailed state:  trans 21.706 39.935 19.218 quatxyzw -0.577115 0.360834 -0.302084 0.667444 center 2.061 11.319 -0.000 ntor 4 91.1230 -162.6364 -146.9626 -25.4919
State:	 21.706  39.935  19.218  -0.775  0.485 -0.406 96.260     91.12 -162.64 -146.96  -25.49

DOCKED: MODEL        2
DOCKED: USER    Run = 2
DOCKED: USER    DPF = final_struct_1LML_clean_h_TZ.dpf
DOCKED: USER  
DOCKED: USER    Estimated Free Energy of Binding    =   -8.78 kcal/mol  [=(1)+(2)+(3)-(4)]
DOCKED: USER    Estimated Inhibition Constant, Ki   =  365.58 nM (nanomolar)  [Temperature = 298.15 K]
DOCKED: USER    
DOCKED: USER    (1) Final Intermolecular Energy     =   -9.97 kcal/mol
DOCKED: USER        vdW + Hbond + desolv Energy     =  -10.05 kcal/mol
DOCKED: USER        Electrostatic Energy            =   +0.07 kcal/mol
DOCKED: USER    (2) Final Total Internal Energy     =   -1.22 kcal/mol
DOCKED: USER    (3) Torsional Free Energy           =   +1.19 kcal/mol
DOCKED: USER    (4) Unbound System's Energy  [=(2)] =   -1.22 kcal/mol
DOCKED: USER    
DOCKED: USER    
DOCKED: USER    NEWDPF move final_struct.pdbqt
DOCKED: USER    NEWDPF about 2.061000 11.319000 -0.000000
DOCKED: USER    NEWDPF tran0 21.706108 39.934807 19.218029
DOCKED: USER    NEWDPF quaternion0 -0.577115 0.360834 -0.302084 0.667444
DOCKED: USER    NEWDPF axisangle0 -0.775005 0.484563 -0.405668 96.259793
DOCKED: USER    NEWDPF quat0 -0.775005 0.484563 -0.405668 96.259793
DOCKED: USER    NEWDPF dihe0 91.12 -162.64 -146.96 -25.49 
DOCKED: USER  keepresnum = 1 
DOCKED: USER  
DOCKED: REMARK  4 active torsions:
DOCKED: REMARK  status: ('A' for Active; 'I' for Inactive)
DOCKED: REMARK    1  A    between atoms: C00Q_4  and  N008_28 
DOCKED: REMARK    2  A    between atoms: C00Q_5  and  N008_29 
DOCKED: REMARK    3  A    between atoms: C00R_6  and  N2_24 
DOCKED: REMARK    4  A    between atoms: C00R_7  and  N2_25 
DOCKED: USER                              x       y       z     vdW  Elec       q    Type
DOCKED: USER                           _______ _______ _______ _____ _____    ______ ____
DOCKED: ROOT
DOCKED: ATOM      1 Pd02 UNK     1      21.706  39.935  19.218 -0.02 -0.00    +0.000 Pd
DOCKED: ATOM      2  C00 UNK     1      20.098  37.852  20.585 -0.09 -0.12    +0.162 C 
DOCKED: ATOM      3  C00 UNK     1      23.313  42.018  17.851 -0.17 -0.20    +0.162 C 
DOCKED: ATOM      4  C00 UNK     1      21.150  35.690  21.209 -0.17 -0.21    +0.285 C 
DOCKED: ATOM      5  C00 UNK     1      22.262  44.180  17.227 -0.28 -0.40    +0.285 C 
DOCKED: ATOM      6  C00 UNK     1      21.291  37.046  20.791 -0.14 -0.14    +0.192 C 
DOCKED: ATOM      7  C00 UNK     1      22.121  42.824  17.645 -0.30 -0.29    +0.192 C 
DOCKED: ATOM      8  N00 UNK     1      20.155  39.038  20.124 -0.03 +0.24    -0.281 N 
DOCKED: ATOM      9  N00 UNK     1      23.256  40.832  18.313 -0.05 +0.31    -0.281 N 
DOCKED: ATOM     10  N00 UNK     1      22.514  37.469  20.701 -0.12 +0.11    -0.140 NA
DOCKED: ATOM     11  N00 UNK     1      20.898  42.401  17.735 -4.19 +0.24    -0.140 NA
DOCKED: ATOM     12  N00 UNK     1      18.893  37.302  20.984 -0.05 +0.19    -0.286 N 
DOCKED: ATOM     13  N00 UNK     1      24.519  42.567  17.452 -0.05 +0.30    -0.286 N 
DOCKED: ATOM     14  N00 UNK     1      19.868  35.203  21.382 -0.11 +0.19    -0.268 N 
DOCKED: ATOM     15  N00 UNK     1      23.544  44.666  17.054 -0.14 +0.30    -0.268 N 
DOCKED: ATOM     16  O00 UNK     1      17.634  35.503  21.565 -0.09 +0.14    -0.246 OA
DOCKED: ATOM     17  O00 UNK     1      25.778  44.366  16.871 -0.06 +0.21    -0.246 OA
DOCKED: ATOM     18  O00 UNK     1      22.102  34.907  21.402 -0.26 +0.22    -0.265 OA
DOCKED: ATOM     19  O00 UNK     1      21.310  44.962  17.035 +0.05 +0.41    -0.265 OA
DOCKED: ATOM     20  N00 UNK     1      22.876  38.633  20.237 -0.08 +0.13    -0.150 N 
DOCKED: ATOM     21  N00 UNK     1      20.535  41.237  18.199 -0.23 +0.22    -0.150 N 
DOCKED: ATOM     22  C01 UNK     1      18.724  35.985  21.345 -0.07 -0.21    +0.332 C 
DOCKED: ATOM     23  C01 UNK     1      24.688  43.885  17.091 -0.06 -0.33    +0.332 C 
DOCKED: ATOM     24  C01 UNK     1      19.703  33.772  21.781 +0.06 -0.12    +0.164 C 
DOCKED: ATOM     25  C01 UNK     1      23.709  46.098  16.655 -0.24 -0.15    +0.164 C 
DOCKED: ATOM     26  C01 UNK     1      17.674  38.111  20.983 -0.23 -0.09    +0.163 C 
DOCKED: ATOM     27  C01 UNK     1      25.738  41.759  17.453 -0.11 -0.15    +0.163 C 
DOCKED: ATOM     28 BH00 UNK     1      19.444  39.512  20.211 +0.08 -0.17    +0.188 HD
DOCKED: ATOM     29 BH00 UNK     1      23.968  40.358  18.225 +0.08 -0.19    +0.188 HD
DOCKED: ENDROOT
DOCKED: BRANCH  20  30
DOCKED: ATOM     30  C00 UNK     1      24.269  38.865  20.366 -0.09 -0.07    +0.079 A 
DOCKED: ATOM     31  C00 UNK     1      25.156  38.336  19.425 -0.15 -0.04    +0.036 A 
DOCKED: ATOM     32  C01 UNK     1      26.510  38.534  19.561 -0.18 -0.04    +0.031 A 
DOCKED: ATOM     33  C00 UNK     1      27.012  39.240  20.630 -0.10 -0.03    +0.025 A 
DOCKED: ATOM     34  C01 UNK     1      26.166  39.782  21.546 -0.06 -0.03    +0.031 A 
DOCKED: ATOM     35  C01 UNK     1      24.797  39.635  21.433 -0.05 -0.03    +0.036 A 
DOCKED: BRANCH  33  36
DOCKED: ATOM     36  N2  UNK     1      28.727  39.420  20.806 -0.04 +0.54    -0.399 N 
DOCKED: ATOM     37  H2a UNK     1      29.126  40.099  20.462 +0.02 -0.16    +0.156 HD
DOCKED: ATOM     38  H2b UNK     1      29.179  38.831  21.239 -0.10 -0.28    +0.156 HD
DOCKED: ENDBRANCH  33  36
DOCKED: ENDBRANCH  20  30
DOCKED: BRANCH  21  39
DOCKED: ATOM     39  C00 UNK     1      19.143  41.005  18.070 -0.36 -0.11    +0.079 A 
DOCKED: ATOM     40  C00 UNK     1      18.667  40.120  17.100 -0.39 -0.05    +0.036 A 
DOCKED: ATOM     41  C01 UNK     1      17.320  39.872  16.989 -0.45 -0.03    +0.031 A 
DOCKED: ATOM     42  C00 UNK     1      16.422  40.473  17.842 -0.34 -0.03    +0.025 A 
DOCKED: ATOM     43  C01 UNK     1      16.861  41.354  18.781 -0.19 -0.04    +0.031 A 
DOCKED: ATOM     44  C01 UNK     1      18.202  41.659  18.907 -0.45 -0.05    +0.036 A 
DOCKED: BRANCH  42  45
DOCKED: ATOM     45  N2  UNK     1      14.736  40.091  17.716 -0.25 +0.35    -0.399 N 
DOCKED: ATOM     46  H2a UNK     1      14.150  40.607  18.075 +0.08 -0.16    +0.156 HD
DOCKED: ATOM     47  H2b UNK     1      14.487  39.385  17.295 +0.12 -0.11    +0.156 HD
DOCKED: ENDBRANCH  42  45
DOCKED: ENDBRANCH  21  39
DOCKED: TORSDOF 4
DOCKED: TER
DOCKED: ENDMDL
________________________________________________________________________________


	BEGINNING GENETIC ALGORITHM DOCKING 3 of 25
Run: 3 Seed: 386133869 1691839019 [ Run 3 of 25 GA/GALS ]
Beginning LAMARCKIAN GENETIC ALGORITHM (LGA), with a maximum of 2500000 energy evaluations.

Final-Value: -11.136


	FINAL GENETIC ALGORITHM DOCKED STATE
	_______________________________________________


Detailed state:  trans 21.677 39.975 19.308 quatxyzw -0.567999 0.367325 -0.324853 0.660999 center 2.061 11.319 -0.000 ntor 4 108.5315 -177.4762 -149.7574 -27.6944
State:	 21.677  39.975  19.308  -0.757  0.490 -0.433 97.248    108.53 -177.48 -149.76  -27.69

DOCKED: MODEL        3
DOCKED: USER    Run = 3
DOCKED: USER    DPF = final_struct_1LML_clean_h_TZ.dpf
DOCKED: USER  
DOCKED: USER    Estimated Free Energy of Binding    =   -8.72 kcal/mol  [=(1)+(2)+(3)-(4)]
DOCKED: USER    Estimated Inhibition Constant, Ki   =  402.59 nM (nanomolar)  [Temperature = 298.15 K]
DOCKED: USER    
DOCKED: USER    (1) Final Intermolecular Energy     =   -9.92 kcal/mol
DOCKED: USER        vdW + Hbond + desolv Energy     =   -9.99 kcal/mol
DOCKED: USER        Electrostatic Energy            =   +0.07 kcal/mol
DOCKED: USER    (2) Final Total Internal Energy     =   -1.22 kcal/mol
DOCKED: USER    (3) Torsional Free Energy           =   +1.19 kcal/mol
DOCKED: USER    (4) Unbound System's Energy  [=(2)] =   -1.22 kcal/mol
DOCKED: USER    
DOCKED: USER    
DOCKED: USER    NEWDPF move final_struct.pdbqt
DOCKED: USER    NEWDPF about 2.061000 11.319000 -0.000000
DOCKED: USER    NEWDPF tran0 21.676966 39.975230 19.308125
DOCKED: USER    NEWDPF quaternion0 -0.567999 0.367325 -0.324853 0.660999
DOCKED: USER    NEWDPF axisangle0 -0.756942 0.489514 -0.432914 97.247783
DOCKED: USER    NEWDPF quat0 -0.756942 0.489514 -0.432914 97.247783
DOCKED: USER    NEWDPF dihe0 108.53 -177.48 -149.76 -27.69 
DOCKED: USER  keepresnum = 1 
DOCKED: USER  
DOCKED: REMARK  4 active torsions:
DOCKED: REMARK  status: ('A' for Active; 'I' for Inactive)
DOCKED: REMARK    1  A    between atoms: C00Q_4  and  N008_28 
DOCKED: REMARK    2  A    between atoms: C00Q_5  and  N008_29 
DOCKED: REMARK    3  A    between atoms: C00R_6  and  N2_24 
DOCKED: REMARK    4  A    between atoms: C00R_7  and  N2_25 
DOCKED: USER                              x       y       z     vdW  Elec       q    Type
DOCKED: USER                           _______ _______ _______ _____ _____    ______ ____
DOCKED: ROOT
DOCKED: ATOM      1 Pd02 UNK     1      21.677  39.975  19.308 -0.02 -0.00    +0.000 Pd
DOCKED: ATOM      2  C00 UNK     1      20.050  37.883  20.638 -0.09 -0.12    +0.162 C 
DOCKED: ATOM      3  C00 UNK     1      23.303  42.068  17.978 -0.16 -0.19    +0.162 C 
DOCKED: ATOM      4  C00 UNK     1      21.116  35.754  21.347 -0.16 -0.21    +0.285 C 
DOCKED: ATOM      5  C00 UNK     1      22.238  44.197  17.269 -0.28 -0.40    +0.285 C 
DOCKED: ATOM      6  C00 UNK     1      21.248  37.105  20.912 -0.12 -0.14    +0.192 C 
DOCKED: ATOM      7  C00 UNK     1      22.106  42.845  17.705 -0.30 -0.29    +0.192 C 
DOCKED: ATOM      8  N00 UNK     1      20.105  39.062  20.159 -0.03 +0.24    -0.281 N 
DOCKED: ATOM      9  N00 UNK     1      23.248  40.888  18.458 -0.04 +0.31    -0.281 N 
DOCKED: ATOM     10  N00 UNK     1      22.466  37.551  20.869 -0.11 +0.11    -0.140 NA
DOCKED: ATOM     11  N00 UNK     1      20.888  42.399  17.747 -4.19 +0.24    -0.140 NA
DOCKED: ATOM     12  N00 UNK     1      18.840  37.315  20.992 -0.05 +0.19    -0.286 N 
DOCKED: ATOM     13  N00 UNK     1      24.514  42.635  17.624 -0.05 +0.29    -0.286 N 
DOCKED: ATOM     14  N00 UNK     1      19.837  35.244  21.471 -0.11 +0.19    -0.268 N 
DOCKED: ATOM     15  N00 UNK     1      23.517  44.707  17.145 -0.14 +0.29    -0.268 N 
DOCKED: ATOM     16  O00 UNK     1      17.591  35.501  21.548 -0.09 +0.14    -0.246 OA
DOCKED: ATOM     17  O00 UNK     1      25.763  44.450  17.068 -0.05 +0.20    -0.246 OA
DOCKED: ATOM     18  O00 UNK     1      22.073  34.994  21.596 -0.26 +0.21    -0.265 OA
DOCKED: ATOM     19  O00 UNK     1      21.280  44.956  17.021 +0.08 +0.41    -0.265 OA
DOCKED: ATOM     20  N00 UNK     1      22.825  38.715  20.402 -0.07 +0.13    -0.150 N 
DOCKED: ATOM     21  N00 UNK     1      20.528  41.236  18.214 -0.23 +0.22    -0.150 N 
DOCKED: ATOM     22  C01 UNK     1      18.681  36.001  21.368 -0.07 -0.21    +0.332 C 
DOCKED: ATOM     23  C01 UNK     1      24.673  43.950  17.248 -0.06 -0.32    +0.332 C 
DOCKED: ATOM     24  C01 UNK     1      19.682  33.816  21.887 -0.07 -0.11    +0.164 C 
DOCKED: ATOM     25  C01 UNK     1      23.671  46.134  16.729 -0.25 -0.15    +0.164 C 
DOCKED: ATOM     26  C01 UNK     1      17.606  38.098  20.922 -0.23 -0.09    +0.163 C 
DOCKED: ATOM     27  C01 UNK     1      25.748  41.852  17.694 -0.09 -0.14    +0.163 C 
DOCKED: ATOM     28 BH00 UNK     1      19.381  39.522  20.206 +0.08 -0.17    +0.188 HD
DOCKED: ATOM     29 BH00 UNK     1      23.973  40.428  18.410 +0.07 -0.19    +0.188 HD
DOCKED: ENDROOT
DOCKED: BRANCH  20  30
DOCKED: ATOM     30  C00 UNK     1      24.206  38.978  20.589 -0.08 -0.07    +0.079 A 
DOCKED: ATOM     31  C00 UNK     1      25.149  38.404  19.733 -0.15 -0.04    +0.036 A 
DOCKED: ATOM     32  C01 UNK     1      26.491  38.633  19.927 -0.16 -0.04    +0.031 A 
DOCKED: ATOM     33  C00 UNK     1      26.926  39.414  20.973 -0.09 -0.03    +0.025 A 
DOCKED: ATOM     34  C01 UNK     1      26.024  40.001  21.806 -0.05 -0.03    +0.031 A 
DOCKED: ATOM     35  C01 UNK     1      24.665  39.824  21.630 -0.04 -0.03    +0.036 A 
DOCKED: BRANCH  33  36
DOCKED: ATOM     36  N2  UNK     1      28.626  39.634  21.227 -0.03 +0.53    -0.399 N 
DOCKED: ATOM     37  H2a UNK     1      28.992  40.393  21.059 +0.02 -0.16    +0.156 HD
DOCKED: ATOM     38  H2b UNK     1      29.104  38.983  21.523 -0.10 -0.28    +0.156 HD
DOCKED: ENDBRANCH  33  36
DOCKED: ENDBRANCH  20  30
DOCKED: BRANCH  21  39
DOCKED: ATOM     39  C00 UNK     1      19.148  40.973  18.028 -0.35 -0.11    +0.079 A 
DOCKED: ATOM     40  C00 UNK     1      18.731  40.098  17.022 -0.38 -0.05    +0.036 A 
DOCKED: ATOM     41  C01 UNK     1      17.396  39.819  16.855 -0.45 -0.03    +0.031 A 
DOCKED: ATOM     42  C00 UNK     1      16.452  40.380  17.684 -0.31 -0.03    +0.025 A 
DOCKED: ATOM     43  C01 UNK     1      16.832  41.252  18.656 -0.25 -0.04    +0.031 A 
DOCKED: ATOM     44  C01 UNK     1      18.159  41.586  18.841 -0.47 -0.05    +0.036 A 
DOCKED: BRANCH  42  45
DOCKED: ATOM     45  N2  UNK     1      14.782  39.961  17.486 -0.25 +0.33    -0.399 N 
DOCKED: ATOM     46  H2a UNK     1      14.183  40.331  17.978 +0.10 -0.14    +0.156 HD
DOCKED: ATOM     47  H2b UNK     1      14.552  39.381  16.894 +0.13 -0.11    +0.156 HD
DOCKED: ENDBRANCH  42  45
DOCKED: ENDBRANCH  21  39
DOCKED: TORSDOF 4
DOCKED: TER
DOCKED: ENDMDL
________________________________________________________________________________


	BEGINNING GENETIC ALGORITHM DOCKING 4 of 25
Run: 4 Seed: 560402357 1199628689 [ Run 4 of 25 GA/GALS ]
Beginning LAMARCKIAN GENETIC ALGORITHM (LGA), with a maximum of 2500000 energy evaluations.

Final-Value: -9.213


	FINAL GENETIC ALGORITHM DOCKED STATE
	_______________________________________________


Detailed state:  trans 13.429 35.596 23.594 quatxyzw 0.622276 0.300257 0.693094 0.205523 center 2.061 11.319 -0.000 ntor 4 -109.6779 -120.2688 -172.4788 -10.2458
State:	 13.429  35.596  23.594   0.636  0.307  0.708 156.280   -109.68 -120.27 -172.48  -10.25

DOCKED: MODEL        4
DOCKED: USER    Run = 4
DOCKED: USER    DPF = final_struct_1LML_clean_h_TZ.dpf
DOCKED: USER  
DOCKED: USER    Estimated Free Energy of Binding    =   -6.89 kcal/mol  [=(1)+(2)+(3)-(4)]
DOCKED: USER    Estimated Inhibition Constant, Ki   =    8.96 uM (micromolar)  [Temperature = 298.15 K]
DOCKED: USER    
DOCKED: USER    (1) Final Intermolecular Energy     =   -8.08 kcal/mol
DOCKED: USER        vdW + Hbond + desolv Energy     =   -8.07 kcal/mol
DOCKED: USER        Electrostatic Energy            =   -0.01 kcal/mol
DOCKED: USER    (2) Final Total Internal Energy     =   -1.13 kcal/mol
DOCKED: USER    (3) Torsional Free Energy           =   +1.19 kcal/mol
DOCKED: USER    (4) Unbound System's Energy  [=(2)] =   -1.13 kcal/mol
DOCKED: USER    
DOCKED: USER    
DOCKED: USER    NEWDPF move final_struct.pdbqt
DOCKED: USER    NEWDPF about 2.061000 11.319000 -0.000000
DOCKED: USER    NEWDPF tran0 13.428909 35.595548 23.594263
DOCKED: USER    NEWDPF quaternion0 0.622276 0.300257 0.693094 0.205523
DOCKED: USER    NEWDPF axisangle0 0.635850 0.306807 0.708212 156.279719
DOCKED: USER    NEWDPF quat0 0.635850 0.306807 0.708212 156.279719
DOCKED: USER    NEWDPF dihe0 -109.68 -120.27 -172.48 -10.25 
DOCKED: USER  keepresnum = 1 
DOCKED: USER  
DOCKED: REMARK  4 active torsions:
DOCKED: REMARK  status: ('A' for Active; 'I' for Inactive)
DOCKED: REMARK    1  A    between atoms: C00Q_4  and  N008_28 
DOCKED: REMARK    2  A    between atoms: C00Q_5  and  N008_29 
DOCKED: REMARK    3  A    between atoms: C00R_6  and  N2_24 
DOCKED: REMARK    4  A    between atoms: C00R_7  and  N2_25 
DOCKED: USER                              x       y       z     vdW  Elec       q    Type
DOCKED: USER                           _______ _______ _______ _____ _____    ______ ____
DOCKED: ROOT
DOCKED: ATOM      1 Pd02 UNK     1      13.429  35.596  23.594 -0.05 -0.00    +0.000 Pd
DOCKED: ATOM      2  C00 UNK     1      16.303  35.921  24.247 -0.08 -0.08    +0.162 C 
DOCKED: ATOM      3  C00 UNK     1      10.555  35.269  22.942 -0.18 -0.11    +0.162 C 
DOCKED: ATOM      4  C00 UNK     1      17.097  38.016  25.321 -0.10 -0.14    +0.285 C 
DOCKED: ATOM      5  C00 UNK     1       9.761  33.175  21.868 -0.24 -0.16    +0.285 C 
DOCKED: ATOM      6  C00 UNK     1      16.017  37.160  24.952 -0.10 -0.09    +0.192 C 
DOCKED: ATOM      7  C00 UNK     1      10.841  34.031  22.236 -0.25 -0.12    +0.192 C 
DOCKED: ATOM      8  N00 UNK     1      15.377  35.163  23.811 -0.04 +0.14    -0.281 N 
DOCKED: ATOM      9  N00 UNK     1      11.481  36.028  23.378 -0.11 +0.21    -0.281 N 
DOCKED: ATOM     10  N00 UNK     1      14.847  37.546  25.360 -0.10 +0.06    -0.140 NA
DOCKED: ATOM     11  N00 UNK     1      12.011  33.645  21.829 -0.22 +0.09    -0.140 NA
DOCKED: ATOM     12  N00 UNK     1      17.633  35.557  24.132 -0.01 +0.15    -0.286 N 
DOCKED: ATOM     13  N00 UNK     1       9.225  35.634  23.056 -0.20 +0.16    -0.286 N 
DOCKED: ATOM     14  N00 UNK     1      18.374  37.623  24.967 -0.04 +0.14    -0.268 N 
DOCKED: ATOM     15  N00 UNK     1       8.484  33.568  22.222 -0.26 +0.14    -0.268 N 
DOCKED: ATOM     16  O00 UNK     1      19.842  36.081  24.203 -0.02 +0.14    -0.246 OA
DOCKED: ATOM     17  O00 UNK     1       7.016  35.110  22.985 -0.39 +0.13    -0.246 OA
DOCKED: ATOM     18  O00 UNK     1      16.965  39.105  25.914 -0.16 +0.13    -0.265 OA
DOCKED: ATOM     19  O00 UNK     1       9.893  32.086  21.275 -0.24 +0.15    -0.265 OA
DOCKED: ATOM     20  N00 UNK     1      13.716  36.976  25.047 -0.14 +0.07    -0.150 N 
DOCKED: ATOM     21  N00 UNK     1      13.143  34.214  22.140 -0.18 +0.10    -0.150 N 
DOCKED: ATOM     22  C01 UNK     1      18.691  36.384  24.435 -0.01 -0.18    +0.332 C 
DOCKED: ATOM     23  C01 UNK     1       8.167  34.808  22.753 -0.23 -0.17    +0.332 C 
DOCKED: ATOM     24  C01 UNK     1      19.513  38.529  25.310 -0.08 -0.09    +0.164 C 
DOCKED: ATOM     25  C01 UNK     1       7.345  32.662  21.879 -0.50 -0.08    +0.164 C 
DOCKED: ATOM     26  C01 UNK     1      17.998  34.244  23.602 -0.03 -0.09    +0.163 C 
DOCKED: ATOM     27  C01 UNK     1       8.860  36.947  23.587 -0.36 -0.10    +0.163 C 
DOCKED: ATOM     28 BH00 UNK     1      15.615  34.370  23.581 +0.04 -0.10    +0.188 HD
DOCKED: ATOM     29 BH00 UNK     1      11.242  36.821  23.607 +0.03 -0.13    +0.188 HD
DOCKED: ENDROOT
DOCKED: BRANCH  20  30
DOCKED: ATOM     30  C00 UNK     1      12.610  37.544  25.731 -0.19 -0.04    +0.079 A 
DOCKED: ATOM     31  C00 UNK     1      12.354  38.914  25.630 -0.26 -0.02    +0.036 A 
DOCKED: ATOM     32  C01 UNK     1      11.300  39.473  26.312 -0.37 -0.02    +0.031 A 
DOCKED: ATOM     33  C00 UNK     1      10.494  38.700  27.116 -0.38 -0.01    +0.025 A 
DOCKED: ATOM     34  C01 UNK     1      10.712  37.361  27.212 -0.32 -0.01    +0.031 A 
DOCKED: ATOM     35  C01 UNK     1      11.739  36.750  26.519 -0.23 -0.02    +0.036 A 
DOCKED: BRANCH  33  36
DOCKED: ATOM     36  N2  UNK     1       9.210  39.446  28.012 -0.03 +0.22    -0.399 N 
DOCKED: ATOM     37  H2a UNK     1       9.264  39.513  28.866 +0.12 -0.06    +0.156 HD
DOCKED: ATOM     38  H2b UNK     1       8.519  39.749  27.600 -0.38 -0.13    +0.156 HD
DOCKED: ENDBRANCH  33  36
DOCKED: ENDBRANCH  20  30
DOCKED: BRANCH  21  39
DOCKED: ATOM     39  C00 UNK     1      14.248  33.647  21.458 -0.20 -0.05    +0.079 A 
DOCKED: ATOM     40  C00 UNK     1      15.049  34.445  20.638 -0.22 -0.02    +0.036 A 
DOCKED: ATOM     41  C01 UNK     1      16.138  33.906  19.996 -0.27 -0.02    +0.031 A 
DOCKED: ATOM     42  C00 UNK     1      16.466  32.580  20.164 -0.22 -0.02    +0.025 A 
DOCKED: ATOM     43  C01 UNK     1      15.688  31.778  20.939 -0.12 -0.02    +0.031 A 
DOCKED: ATOM     44  C01 UNK     1      14.566  32.269  21.579 -0.12 -0.02    +0.036 A 
DOCKED: BRANCH  42  45
DOCKED: ATOM     45  N2  UNK     1      17.880  31.945  19.388 -0.12 +0.29    -0.399 N 
DOCKED: ATOM     46  H2a UNK     1      17.810  31.298  18.828 +0.04 -0.11    +0.156 HD
DOCKED: ATOM     47  H2b UNK     1      18.653  32.278  19.566 -0.53 -0.14    +0.156 HD
DOCKED: ENDBRANCH  42  45
DOCKED: ENDBRANCH  21  39
DOCKED: TORSDOF 4
DOCKED: TER
DOCKED: ENDMDL
________________________________________________________________________________


	BEGINNING GENETIC ALGORITHM DOCKING 5 of 25
Run: 5 Seed: 954759873 1509333700 [ Run 5 of 25 GA/GALS ]
Beginning LAMARCKIAN GENETIC ALGORITHM (LGA), with a maximum of 2500000 energy evaluations.

Final-Value: -11.076


	FINAL GENETIC ALGORITHM DOCKED STATE
	_______________________________________________


Detailed state:  trans 21.721 39.875 19.109 quatxyzw 0.584235 -0.339868 0.247193 -0.694302 center 2.061 11.319 -0.000 ntor 4 67.9699 -142.6035 -136.2203 175.3328
State:	 21.721  39.875  19.109   0.812 -0.472  0.343 -92.057     67.97 -142.60 -136.22  175.33

DOCKED: MODEL        5
DOCKED: USER    Run = 5
DOCKED: USER    DPF = final_struct_1LML_clean_h_TZ.dpf
DOCKED: USER  
DOCKED: USER    Estimated Free Energy of Binding    =   -8.78 kcal/mol  [=(1)+(2)+(3)-(4)]
DOCKED: USER    Estimated Inhibition Constant, Ki   =  365.48 nM (nanomolar)  [Temperature = 298.15 K]
DOCKED: USER    
DOCKED: USER    (1) Final Intermolecular Energy     =   -9.97 kcal/mol
DOCKED: USER        vdW + Hbond + desolv Energy     =  -10.04 kcal/mol
DOCKED: USER        Electrostatic Energy            =   +0.06 kcal/mol
DOCKED: USER    (2) Final Total Internal Energy     =   -1.10 kcal/mol
DOCKED: USER    (3) Torsional Free Energy           =   +1.19 kcal/mol
DOCKED: USER    (4) Unbound System's Energy  [=(2)] =   -1.10 kcal/mol
DOCKED: USER    
DOCKED: USER    
DOCKED: USER    NEWDPF move final_struct.pdbqt
DOCKED: USER    NEWDPF about 2.061000 11.319000 -0.000000
DOCKED: USER    NEWDPF tran0 21.720961 39.874830 19.109383
DOCKED: USER    NEWDPF quaternion0 0.584235 -0.339868 0.247193 -0.694302
DOCKED: USER    NEWDPF axisangle0 0.811794 -0.472246 0.343475 -92.056762
DOCKED: USER    NEWDPF quat0 0.811794 -0.472246 0.343475 -92.056762
DOCKED: USER    NEWDPF dihe0 67.97 -142.60 -136.22 175.33 
DOCKED: USER  keepresnum = 1 
DOCKED: USER  
DOCKED: REMARK  4 active torsions:
DOCKED: REMARK  status: ('A' for Active; 'I' for Inactive)
DOCKED: REMARK    1  A    between atoms: C00Q_4  and  N008_28 
DOCKED: REMARK    2  A    between atoms: C00Q_5  and  N008_29 
DOCKED: REMARK    3  A    between atoms: C00R_6  and  N2_24 
DOCKED: REMARK    4  A    between atoms: C00R_7  and  N2_25 
DOCKED: USER                              x       y       z     vdW  Elec       q    Type
DOCKED: USER                           _______ _______ _______ _____ _____    ______ ____
DOCKED: ROOT
DOCKED: ATOM      1 Pd02 UNK     1      21.721  39.875  19.109 -0.03 -0.00    +0.000 Pd
DOCKED: ATOM      2  C00 UNK     1      20.158  37.880  20.648 -0.09 -0.12    +0.162 C 
DOCKED: ATOM      3  C00 UNK     1      23.284  41.870  17.571 -0.18 -0.21    +0.162 C 
DOCKED: ATOM      4  C00 UNK     1      21.142  35.653  21.143 -0.18 -0.22    +0.285 C 
DOCKED: ATOM      5  C00 UNK     1      22.300  44.097  17.076 -0.28 -0.41    +0.285 C 
DOCKED: ATOM      6  C00 UNK     1      21.315  37.002  20.714 -0.15 -0.14    +0.192 C 
DOCKED: ATOM      7  C00 UNK     1      22.127  42.747  17.505 -0.30 -0.30    +0.192 C 
DOCKED: ATOM      8  N00 UNK     1      20.233  39.064  20.186 -0.02 +0.24    -0.281 N 
DOCKED: ATOM      9  N00 UNK     1      23.208  40.685  18.034 -0.07 +0.33    -0.281 N 
DOCKED: ATOM     10  N00 UNK     1      22.544  37.352  20.484 -0.14 +0.11    -0.140 NA
DOCKED: ATOM     11  N00 UNK     1      20.898  42.398  17.734 -4.18 +0.24    -0.140 NA
DOCKED: ATOM     12  N00 UNK     1      18.975  37.399  21.182 -0.04 +0.19    -0.286 N 
DOCKED: ATOM     13  N00 UNK     1      24.467  42.350  17.037 -0.08 +0.33    -0.286 N 
DOCKED: ATOM     14  N00 UNK     1      19.861  35.242  21.461 -0.11 +0.19    -0.268 N 
DOCKED: ATOM     15  N00 UNK     1      23.581  44.507  16.757 -0.14 +0.31    -0.268 N 
DOCKED: ATOM     16  O00 UNK     1      17.685  35.674  21.900 -0.08 +0.14    -0.246 OA
DOCKED: ATOM     17  O00 UNK     1      25.757  44.076  16.318 -0.08 +0.22    -0.246 OA
DOCKED: ATOM     18  O00 UNK     1      22.060  34.813  21.223 -0.19 +0.22    -0.265 OA
DOCKED: ATOM     19  O00 UNK     1      21.381  44.936  16.996 -0.01 +0.41    -0.265 OA
DOCKED: ATOM     20  N00 UNK     1      22.919  38.496  19.985 -0.10 +0.13    -0.150 N 
DOCKED: ATOM     21  N00 UNK     1      20.521  41.253  18.234 -0.23 +0.22    -0.150 N 
DOCKED: ATOM     22  C01 UNK     1      18.770  36.091  21.557 -0.06 -0.21    +0.332 C 
DOCKED: ATOM     23  C01 UNK     1      24.672  43.659  16.662 -0.08 -0.35    +0.332 C 
DOCKED: ATOM     24  C01 UNK     1      19.657  33.820  21.874 -0.07 -0.11    +0.164 C 
DOCKED: ATOM     25  C01 UNK     1      23.785  45.930  16.345 -0.23 -0.16    +0.164 C 
DOCKED: ATOM     26  C01 UNK     1      17.815  38.279  21.322 -0.22 -0.10    +0.163 C 
DOCKED: ATOM     27  C01 UNK     1      25.627  41.471  16.897 -0.17 -0.15    +0.163 C 
DOCKED: ATOM     28 BH00 UNK     1      19.566  39.579  20.355 +0.08 -0.17    +0.188 HD
DOCKED: ATOM     29 BH00 UNK     1      23.876  40.171  17.864 +0.08 -0.20    +0.188 HD
DOCKED: ENDROOT
DOCKED: BRANCH  20  30
DOCKED: ATOM     30  C00 UNK     1      24.329  38.644  19.953 -0.11 -0.07    +0.079 A 
DOCKED: ATOM     31  C00 UNK     1      25.046  38.271  18.813 -0.17 -0.03    +0.036 A 
DOCKED: ATOM     32  C01 UNK     1      26.416  38.386  18.787 -0.23 -0.03    +0.031 A 
DOCKED: ATOM     33  C00 UNK     1      27.102  38.851  19.886 -0.15 -0.03    +0.025 A 
DOCKED: ATOM     34  C01 UNK     1      26.423  39.240  20.998 -0.10 -0.04    +0.031 A 
DOCKED: ATOM     35  C01 UNK     1      25.045  39.172  21.058 -0.08 -0.03    +0.036 A 
DOCKED: BRANCH  33  36
DOCKED: ATOM     36  N2  UNK     1      28.833  38.926  19.844 -0.04 +0.53    -0.399 N 
DOCKED: ATOM     37  H2a UNK     1      29.228  39.485  19.324 +0.04 -0.16    +0.156 HD
DOCKED: ATOM     38  H2b UNK     1      29.298  38.404  20.344 -0.02 -0.27    +0.156 HD
DOCKED: ENDBRANCH  33  36
DOCKED: ENDBRANCH  20  30
DOCKED: BRANCH  21  39
DOCKED: ATOM     39  C00 UNK     1      19.113  41.106  18.266 -0.37 -0.11    +0.079 A 
DOCKED: ATOM     40  C00 UNK     1      18.320  42.083  18.873 -0.49 -0.05    +0.036 A 
DOCKED: ATOM     41  C01 UNK     1      16.951  41.958  18.883 +0.41 -0.04    +0.031 A 
DOCKED: ATOM     42  C00 UNK     1      16.340  40.882  18.280 -0.22 -0.03    +0.025 A 
DOCKED: ATOM     43  C01 UNK     1      17.092  39.907  17.702 -0.48 -0.03    +0.031 A 
DOCKED: ATOM     44  C01 UNK     1      18.472  39.975  17.696 -0.38 -0.04    +0.036 A 
DOCKED: BRANCH  42  45
DOCKED: ATOM     45  N2  UNK     1      14.610  40.784  18.257 -0.16 +0.43    -0.399 N 
DOCKED: ATOM     46  H2a UNK     1      14.220  40.024  18.350 +0.12 -0.14    +0.156 HD
DOCKED: ATOM     47  H2b UNK     1      14.141  41.497  18.151 -0.25 -0.20    +0.156 HD
DOCKED: ENDBRANCH  42  45
DOCKED: ENDBRANCH  21  39
DOCKED: TORSDOF 4
DOCKED: TER
DOCKED: ENDMDL
________________________________________________________________________________


	BEGINNING GENETIC ALGORITHM DOCKING 6 of 25
Run: 6 Seed: 2120270176 533763853 [ Run 6 of 25 GA/GALS ]
Beginning LAMARCKIAN GENETIC ALGORITHM (LGA), with a maximum of 2500000 energy evaluations.

Final-Value: -10.682


	FINAL GENETIC ALGORITHM DOCKED STATE
	_______________________________________________


Detailed state:  trans 21.747 40.000 19.314 quatxyzw 0.571098 -0.361425 0.335089 -0.656456 center 2.061 11.319 -0.000 ntor 4 -57.2134 16.7448 -153.8816 154.1255
State:	 21.747  40.000  19.314   0.757 -0.479  0.444 -97.940    -57.21   16.74 -153.88  154.13

DOCKED: MODEL        6
DOCKED: USER    Run = 6
DOCKED: USER    DPF = final_struct_1LML_clean_h_TZ.dpf
DOCKED: USER  
DOCKED: USER    Estimated Free Energy of Binding    =   -8.29 kcal/mol  [=(1)+(2)+(3)-(4)]
DOCKED: USER    Estimated Inhibition Constant, Ki   =  839.14 nM (nanomolar)  [Temperature = 298.15 K]
DOCKED: USER    
DOCKED: USER    (1) Final Intermolecular Energy     =   -9.48 kcal/mol
DOCKED: USER        vdW + Hbond + desolv Energy     =   -9.57 kcal/mol
DOCKED: USER        Electrostatic Energy            =   +0.09 kcal/mol
DOCKED: USER    (2) Final Total Internal Energy     =   -1.20 kcal/mol
DOCKED: USER    (3) Torsional Free Energy           =   +1.19 kcal/mol
DOCKED: USER    (4) Unbound System's Energy  [=(2)] =   -1.20 kcal/mol
DOCKED: USER    
DOCKED: USER    
DOCKED: USER    NEWDPF move final_struct.pdbqt
DOCKED: USER    NEWDPF about 2.061000 11.319000 -0.000000
DOCKED: USER    NEWDPF tran0 21.747342 39.999988 19.314432
DOCKED: USER    NEWDPF quaternion0 0.571098 -0.361425 0.335089 -0.656456
DOCKED: USER    NEWDPF axisangle0 0.757059 -0.479112 0.444200 -97.939721
DOCKED: USER    NEWDPF quat0 0.757059 -0.479112 0.444200 -97.939721
DOCKED: USER    NEWDPF dihe0 -57.21 16.74 -153.88 154.13 
DOCKED: USER  keepresnum = 1 
DOCKED: USER  
DOCKED: REMARK  4 active torsions:
DOCKED: REMARK  status: ('A' for Active; 'I' for Inactive)
DOCKED: REMARK    1  A    between atoms: C00Q_4  and  N008_28 
DOCKED: REMARK    2  A    between atoms: C00Q_5  and  N008_29 
DOCKED: REMARK    3  A    between atoms: C00R_6  and  N2_24 
DOCKED: REMARK    4  A    between atoms: C00R_7  and  N2_25 
DOCKED: USER                              x       y       z     vdW  Elec       q    Type
DOCKED: USER                           _______ _______ _______ _____ _____    ______ ____
DOCKED: ROOT
DOCKED: ATOM      1 Pd02 UNK     1      21.747  40.000  19.314 -0.02 -0.00    +0.000 Pd
DOCKED: ATOM      2  C00 UNK     1      20.168  37.870  20.641 -0.09 -0.12    +0.162 C 
DOCKED: ATOM      3  C00 UNK     1      23.326  42.130  17.989 -0.16 -0.19    +0.162 C 
DOCKED: ATOM      4  C00 UNK     1      21.283  35.770  21.360 -0.17 -0.21    +0.285 C 
DOCKED: ATOM      5  C00 UNK     1      22.211  44.230  17.269 -0.28 -0.40    +0.285 C 
DOCKED: ATOM      6  C00 UNK     1      21.384  37.123  20.922 -0.13 -0.14    +0.192 C 
DOCKED: ATOM      7  C00 UNK     1      22.111  42.877  17.707 -0.30 -0.28    +0.192 C 
DOCKED: ATOM      8  N00 UNK     1      20.194  39.049  20.159 -0.02 +0.24    -0.281 N 
DOCKED: ATOM      9  N00 UNK     1      23.299  40.951  18.470 -0.04 +0.30    -0.281 N 
DOCKED: ATOM     10  N00 UNK     1      22.590  37.600  20.884 -0.10 +0.11    -0.140 NA
DOCKED: ATOM     11  N00 UNK     1      20.905  42.400  17.744 -4.15 +0.24    -0.140 NA
DOCKED: ATOM     12  N00 UNK     1      18.970  37.272  20.990 -0.05 +0.19    -0.286 N 
DOCKED: ATOM     13  N00 UNK     1      24.525  42.728  17.639 -0.04 +0.29    -0.286 N 
DOCKED: ATOM     14  N00 UNK     1      20.017  35.228  21.478 -0.11 +0.19    -0.268 N 
DOCKED: ATOM     15  N00 UNK     1      23.477  44.772  17.151 -0.15 +0.29    -0.268 N 
DOCKED: ATOM     16  O00 UNK     1      17.765  35.428  21.543 -0.09 +0.14    -0.246 OA
DOCKED: ATOM     17  O00 UNK     1      25.729  44.572  17.086 -0.06 +0.20    -0.246 OA
DOCKED: ATOM     18  O00 UNK     1      22.258  35.035  21.615 -0.27 +0.22    -0.265 OA
DOCKED: ATOM     19  O00 UNK     1      21.236  44.965  17.014 +0.25 +0.42    -0.265 OA
DOCKED: ATOM     20  N00 UNK     1      22.921  38.772  20.416 -0.07 +0.13    -0.150 N 
DOCKED: ATOM     21  N00 UNK     1      20.572  41.228  18.212 -0.22 +0.22    -0.150 N 
DOCKED: ATOM     22  C01 UNK     1      18.843  35.955  21.368 -0.07 -0.21    +0.332 C 
DOCKED: ATOM     23  C01 UNK     1      24.652  44.045  17.261 -0.06 -0.32    +0.332 C 
DOCKED: ATOM     24  C01 UNK     1      19.897  33.798  21.897 -0.00 -0.11    +0.164 C 
DOCKED: ATOM     25  C01 UNK     1      23.598  46.202  16.732 -0.26 -0.15    +0.164 C 
DOCKED: ATOM     26  C01 UNK     1      17.717  38.023  20.911 -0.23 -0.09    +0.163 C 
DOCKED: ATOM     27  C01 UNK     1      25.778  41.977  17.718 -0.09 -0.14    +0.163 C 
DOCKED: ATOM     28 BH00 UNK     1      19.459  39.491  20.202 +0.08 -0.17    +0.188 HD
DOCKED: ATOM     29 BH00 UNK     1      24.036  40.509  18.427 +0.07 -0.19    +0.188 HD
DOCKED: ENDROOT
DOCKED: BRANCH  20  30
DOCKED: ATOM     30  C00 UNK     1      24.294  39.070  20.610 -0.07 -0.07    +0.079 A 
DOCKED: ATOM     31  C00 UNK     1      25.263  38.451  19.816 -0.15 -0.04    +0.036 A 
DOCKED: ATOM     32  C01 UNK     1      26.597  38.716  20.018 -0.15 -0.04    +0.031 A 
DOCKED: ATOM     33  C00 UNK     1      26.999  39.577  21.013 -0.08 -0.03    +0.025 A 
DOCKED: ATOM     34  C01 UNK     1      26.072  40.207  21.784 -0.05 -0.03    +0.031 A 
DOCKED: ATOM     35  C01 UNK     1      24.720  39.996  21.596 -0.04 -0.03    +0.036 A 
DOCKED: BRANCH  33  36
DOCKED: ATOM     36  N2  UNK     1      28.691  39.843  21.283 -0.03 +0.49    -0.399 N 
DOCKED: ATOM     37  H2a UNK     1      29.208  39.180  21.456 -0.04 -0.25    +0.156 HD
DOCKED: ATOM     38  H2b UNK     1      29.012  40.640  21.242 +0.02 -0.15    +0.156 HD
DOCKED: ENDBRANCH  33  36
DOCKED: ENDBRANCH  20  30
DOCKED: BRANCH  21  39
DOCKED: ATOM     39  C00 UNK     1      19.200  40.930  18.019 -0.35 -0.11    +0.079 A 
DOCKED: ATOM     40  C00 UNK     1      18.230  41.552  18.809 -0.47 -0.05    +0.036 A 
DOCKED: ATOM     41  C01 UNK     1      16.897  41.286  18.607 -0.23 -0.04    +0.031 A 
DOCKED: ATOM     42  C00 UNK     1      16.496  40.421  17.615 -0.22 -0.03    +0.025 A 
DOCKED: ATOM     43  C01 UNK     1      17.423  39.788  16.847 -0.46 -0.03    +0.031 A 
DOCKED: ATOM     44  C01 UNK     1      18.775  40.000  17.036 -0.38 -0.05    +0.036 A 
DOCKED: BRANCH  42  45
DOCKED: ATOM     45  N2  UNK     1      14.805  40.154  17.346 -0.28 +0.35    -0.399 N 
DOCKED: ATOM     46  H2a UNK     1      14.226  40.702  17.666 +0.09 -0.16    +0.156 HD
DOCKED: ATOM     47  H2b UNK     1      14.545  39.472  16.891 +0.13 -0.11    +0.156 HD
DOCKED: ENDBRANCH  42  45
DOCKED: ENDBRANCH  21  39
DOCKED: TORSDOF 4
DOCKED: TER
DOCKED: ENDMDL
________________________________________________________________________________


	BEGINNING GENETIC ALGORITHM DOCKING 7 of 25
Run: 7 Seed: 1122729921 1657791190 [ Run 7 of 25 GA/GALS ]
Beginning LAMARCKIAN GENETIC ALGORITHM (LGA), with a maximum of 2500000 energy evaluations.

Final-Value: -11.243


	FINAL GENETIC ALGORITHM DOCKED STATE
	_______________________________________________


Detailed state:  trans 21.680 39.952 19.272 quatxyzw -0.570679 0.362687 -0.306400 0.670002 center 2.061 11.319 -0.000 ntor 4 104.6704 -146.5257 -151.5156 -33.0610
State:	 21.680  39.952  19.272  -0.769  0.489 -0.413 95.866    104.67 -146.53 -151.52  -33.06

DOCKED: MODEL        7
DOCKED: USER    Run = 7
DOCKED: USER    DPF = final_struct_1LML_clean_h_TZ.dpf
DOCKED: USER  
DOCKED: USER    Estimated Free Energy of Binding    =   -8.83 kcal/mol  [=(1)+(2)+(3)-(4)]
DOCKED: USER    Estimated Inhibition Constant, Ki   =  335.71 nM (nanomolar)  [Temperature = 298.15 K]
DOCKED: USER    
DOCKED: USER    (1) Final Intermolecular Energy     =  -10.03 kcal/mol
DOCKED: USER        vdW + Hbond + desolv Energy     =  -10.09 kcal/mol
DOCKED: USER        Electrostatic Energy            =   +0.07 kcal/mol
DOCKED: USER    (2) Final Total Internal Energy     =   -1.22 kcal/mol
DOCKED: USER    (3) Torsional Free Energy           =   +1.19 kcal/mol
DOCKED: USER    (4) Unbound System's Energy  [=(2)] =   -1.22 kcal/mol
DOCKED: USER    
DOCKED: USER    
DOCKED: USER    NEWDPF move final_struct.pdbqt
DOCKED: USER    NEWDPF about 2.061000 11.319000 -0.000000
DOCKED: USER    NEWDPF tran0 21.679573 39.951926 19.272026
DOCKED: USER    NEWDPF quaternion0 -0.570679 0.362687 -0.306400 0.670002
DOCKED: USER    NEWDPF axisangle0 -0.768737 0.488560 -0.412738 95.865512
DOCKED: USER    NEWDPF quat0 -0.768737 0.488560 -0.412738 95.865512
DOCKED: USER    NEWDPF dihe0 104.67 -146.53 -151.52 -33.06 
DOCKED: USER  keepresnum = 1 
DOCKED: USER  
DOCKED: REMARK  4 active torsions:
DOCKED: REMARK  status: ('A' for Active; 'I' for Inactive)
DOCKED: REMARK    1  A    between atoms: C00Q_4  and  N008_28 
DOCKED: REMARK    2  A    between atoms: C00Q_5  and  N008_29 
DOCKED: REMARK    3  A    between atoms: C00R_6  and  N2_24 
DOCKED: REMARK    4  A    between atoms: C00R_7  and  N2_25 
DOCKED: USER                              x       y       z     vdW  Elec       q    Type
DOCKED: USER                           _______ _______ _______ _____ _____    ______ ____
DOCKED: ROOT
DOCKED: ATOM      1 Pd02 UNK     1      21.680  39.952  19.272 -0.02 -0.00    +0.000 Pd
DOCKED: ATOM      2  C00 UNK     1      20.053  37.892  20.652 -0.09 -0.12    +0.162 C 
DOCKED: ATOM      3  C00 UNK     1      23.305  42.012  17.893 -0.16 -0.20    +0.162 C 
DOCKED: ATOM      4  C00 UNK     1      21.094  35.736  21.315 -0.16 -0.21    +0.285 C 
DOCKED: ATOM      5  C00 UNK     1      22.265  44.168  17.229 -0.28 -0.40    +0.285 C 
DOCKED: ATOM      6  C00 UNK     1      21.242  37.086  20.880 -0.13 -0.14    +0.192 C 
DOCKED: ATOM      7  C00 UNK     1      22.117  42.818  17.664 -0.30 -0.29    +0.192 C 
DOCKED: ATOM      8  N00 UNK     1      20.118  39.072  20.175 -0.03 +0.24    -0.281 N 
DOCKED: ATOM      9  N00 UNK     1      23.241  40.832  18.370 -0.05 +0.31    -0.281 N 
DOCKED: ATOM     10  N00 UNK     1      22.467  37.504  20.795 -0.11 +0.11    -0.140 NA
DOCKED: ATOM     11  N00 UNK     1      20.892  42.400  17.749 -4.20 +0.24    -0.140 NA
DOCKED: ATOM     12  N00 UNK     1      18.843  37.350  21.047 -0.05 +0.19    -0.286 N 
DOCKED: ATOM     13  N00 UNK     1      24.516  42.553  17.498 -0.05 +0.30    -0.286 N 
DOCKED: ATOM     14  N00 UNK     1      19.809  35.255  21.483 -0.10 +0.19    -0.268 N 
DOCKED: ATOM     15  N00 UNK     1      23.550  44.649  17.061 -0.14 +0.30    -0.268 N 
DOCKED: ATOM     16  O00 UNK     1      17.574  35.563  21.640 -0.09 +0.14    -0.246 OA
DOCKED: ATOM     17  O00 UNK     1      25.786  44.341  16.904 -0.06 +0.21    -0.246 OA
DOCKED: ATOM     18  O00 UNK     1      22.041  34.953  21.527 -0.26 +0.21    -0.265 OA
DOCKED: ATOM     19  O00 UNK     1      21.317  44.951  17.018 +0.04 +0.41    -0.265 OA
DOCKED: ATOM     20  N00 UNK     1      22.836  38.661  20.320 -0.07 +0.13    -0.150 N 
DOCKED: ATOM     21  N00 UNK     1      20.522  41.243  18.224 -0.23 +0.22    -0.150 N 
DOCKED: ATOM     22  C01 UNK     1      18.667  36.039  21.423 -0.07 -0.21    +0.332 C 
DOCKED: ATOM     23  C01 UNK     1      24.692  43.865  17.121 -0.06 -0.33    +0.332 C 
DOCKED: ATOM     24  C01 UNK     1      19.636  33.829  21.899 -0.08 -0.11    +0.164 C 
DOCKED: ATOM     25  C01 UNK     1      23.723  46.074  16.645 -0.24 -0.15    +0.164 C 
DOCKED: ATOM     26  C01 UNK     1      17.626  38.162  21.023 -0.23 -0.09    +0.163 C 
DOCKED: ATOM     27  C01 UNK     1      25.733  41.742  17.521 -0.11 -0.15    +0.163 C 
DOCKED: ATOM     28 BH00 UNK     1      19.407  39.548  20.249 +0.08 -0.17    +0.188 HD
DOCKED: ATOM     29 BH00 UNK     1      23.952  40.356  18.295 +0.07 -0.19    +0.188 HD
DOCKED: ENDROOT
DOCKED: BRANCH  20  30
DOCKED: ATOM     30  C00 UNK     1      24.229  38.891  20.458 -0.08 -0.07    +0.079 A 
DOCKED: ATOM     31  C00 UNK     1      25.130  38.270  19.591 -0.14 -0.04    +0.036 A 
DOCKED: ATOM     32  C01 UNK     1      26.483  38.468  19.738 -0.18 -0.04    +0.031 A 
DOCKED: ATOM     33  C00 UNK     1      26.969  39.264  20.750 -0.10 -0.03    +0.025 A 
DOCKED: ATOM     34  C01 UNK     1      26.109  39.896  21.593 -0.06 -0.03    +0.031 A 
DOCKED: ATOM     35  C01 UNK     1      24.741  39.751  21.463 -0.04 -0.03    +0.036 A 
DOCKED: BRANCH  33  36
DOCKED: ATOM     36  N2  UNK     1      28.682  39.445  20.948 -0.04 +0.55    -0.399 N 
DOCKED: ATOM     37  H2a UNK     1      29.069  40.171  20.703 +0.02 -0.16    +0.156 HD
DOCKED: ATOM     38  H2b UNK     1      29.144  38.807  21.292 -0.13 -0.29    +0.156 HD
DOCKED: ENDBRANCH  33  36
DOCKED: ENDBRANCH  20  30
DOCKED: BRANCH  21  39
DOCKED: ATOM     39  C00 UNK     1      19.130  41.013  18.086 -0.36 -0.11    +0.079 A 
DOCKED: ATOM     40  C00 UNK     1      18.650  40.242  17.024 -0.38 -0.05    +0.036 A 
DOCKED: ATOM     41  C01 UNK     1      17.304  39.993  16.901 -0.38 -0.03    +0.031 A 
DOCKED: ATOM     42  C00 UNK     1      16.412  40.482  17.828 -0.33 -0.03    +0.025 A 
DOCKED: ATOM     43  C01 UNK     1      16.854  41.253  18.858 -0.31 -0.04    +0.031 A 
DOCKED: ATOM     44  C01 UNK     1      18.194  41.555  19.003 -0.37 -0.04    +0.036 A 
DOCKED: BRANCH  42  45
DOCKED: ATOM     45  N2  UNK     1      14.728  40.100  17.679 -0.26 +0.35    -0.399 N 
DOCKED: ATOM     46  H2a UNK     1      14.134  40.670  17.922 +0.08 -0.16    +0.156 HD
DOCKED: ATOM     47  H2b UNK     1      14.488  39.338  17.361 +0.12 -0.10    +0.156 HD
DOCKED: ENDBRANCH  42  45
DOCKED: ENDBRANCH  21  39
DOCKED: TORSDOF 4
DOCKED: TER
DOCKED: ENDMDL
________________________________________________________________________________


	BEGINNING GENETIC ALGORITHM DOCKING 8 of 25
Run: 8 Seed: 224334741 1839578786 [ Run 8 of 25 GA/GALS ]
Beginning LAMARCKIAN GENETIC ALGORITHM (LGA), with a maximum of 2500000 energy evaluations.

Final-Value: -11.283


	FINAL GENETIC ALGORITHM DOCKED STATE
	_______________________________________________


Detailed state:  trans 21.696 39.902 19.187 quatxyzw -0.577889 0.352936 -0.273382 0.683186 center 2.061 11.319 -0.000 ntor 4 -110.0267 -159.6606 -141.4247 -15.1556
State:	 21.696  39.902  19.187  -0.791  0.483 -0.374 93.814   -110.03 -159.66 -141.42  -15.16

DOCKED: MODEL        8
DOCKED: USER    Run = 8
DOCKED: USER    DPF = final_struct_1LML_clean_h_TZ.dpf
DOCKED: USER  
DOCKED: USER    Estimated Free Energy of Binding    =   -8.89 kcal/mol  [=(1)+(2)+(3)-(4)]
DOCKED: USER    Estimated Inhibition Constant, Ki   =  304.17 nM (nanomolar)  [Temperature = 298.15 K]
DOCKED: USER    
DOCKED: USER    (1) Final Intermolecular Energy     =  -10.08 kcal/mol
DOCKED: USER        vdW + Hbond + desolv Energy     =  -10.16 kcal/mol
DOCKED: USER        Electrostatic Energy            =   +0.07 kcal/mol
DOCKED: USER    (2) Final Total Internal Energy     =   -1.20 kcal/mol
DOCKED: USER    (3) Torsional Free Energy           =   +1.19 kcal/mol
DOCKED: USER    (4) Unbound System's Energy  [=(2)] =   -1.20 kcal/mol
DOCKED: USER    
DOCKED: USER    
DOCKED: USER    NEWDPF move final_struct.pdbqt
DOCKED: USER    NEWDPF about 2.061000 11.319000 -0.000000
DOCKED: USER    NEWDPF tran0 21.695844 39.902333 19.187444
DOCKED: USER    NEWDPF quaternion0 -0.577889 0.352936 -0.273382 0.683186
DOCKED: USER    NEWDPF axisangle0 -0.791363 0.483312 -0.374371 93.813803
DOCKED: USER    NEWDPF quat0 -0.791363 0.483312 -0.374371 93.813803
DOCKED: USER    NEWDPF dihe0 -110.03 -159.66 -141.42 -15.16 
DOCKED: USER  keepresnum = 1 
DOCKED: USER  
DOCKED: REMARK  4 active torsions:
DOCKED: REMARK  status: ('A' for Active; 'I' for Inactive)
DOCKED: REMARK    1  A    between atoms: C00Q_4  and  N008_28 
DOCKED: REMARK    2  A    between atoms: C00Q_5  and  N008_29 
DOCKED: REMARK    3  A    between atoms: C00R_6  and  N2_24 
DOCKED: REMARK    4  A    between atoms: C00R_7  and  N2_25 
DOCKED: USER                              x       y       z     vdW  Elec       q    Type
DOCKED: USER                           _______ _______ _______ _____ _____    ______ ____
DOCKED: ROOT
DOCKED: ATOM      1 Pd02 UNK     1      21.696  39.902  19.187 -0.02 -0.00    +0.000 Pd
DOCKED: ATOM      2  C00 UNK     1      20.088  37.883  20.646 -0.09 -0.12    +0.162 C 
DOCKED: ATOM      3  C00 UNK     1      23.303  41.922  17.729 -0.17 -0.21    +0.162 C 
DOCKED: ATOM      4  C00 UNK     1      21.090  35.682  21.216 -0.17 -0.21    +0.285 C 
DOCKED: ATOM      5  C00 UNK     1      22.302  44.123  17.159 -0.28 -0.40    +0.285 C 
DOCKED: ATOM      6  C00 UNK     1      21.259  37.032  20.787 -0.14 -0.14    +0.192 C 
DOCKED: ATOM      7  C00 UNK     1      22.133  42.773  17.587 -0.30 -0.30    +0.192 C 
DOCKED: ATOM      8  N00 UNK     1      20.165  39.066  20.180 -0.03 +0.24    -0.281 N 
DOCKED: ATOM      9  N00 UNK     1      23.226  40.739  18.196 -0.06 +0.32    -0.281 N 
DOCKED: ATOM     10  N00 UNK     1      22.491  37.407  20.628 -0.13 +0.11    -0.140 NA
DOCKED: ATOM     11  N00 UNK     1      20.901  42.397  17.746 -4.17 +0.24    -0.140 NA
DOCKED: ATOM     12  N00 UNK     1      18.887  37.379  21.113 -0.05 +0.19    -0.286 N 
DOCKED: ATOM     13  N00 UNK     1      24.505  42.425  17.262 -0.06 +0.31    -0.286 N 
DOCKED: ATOM     14  N00 UNK     1      19.802  35.245  21.461 -0.11 +0.19    -0.268 N 
DOCKED: ATOM     15  N00 UNK     1      23.590  44.560  16.914 -0.14 +0.30    -0.268 N 
DOCKED: ATOM     16  O00 UNK     1      17.594  35.630  21.767 -0.09 +0.14    -0.246 OA
DOCKED: ATOM     17  O00 UNK     1      25.797  44.175  16.608 -0.06 +0.21    -0.246 OA
DOCKED: ATOM     18  O00 UNK     1      22.020  34.864  21.357 -0.24 +0.22    -0.265 OA
DOCKED: ATOM     19  O00 UNK     1      21.371  44.941  17.018 -0.02 +0.41    -0.265 OA
DOCKED: ATOM     20  N00 UNK     1      22.870  38.557  20.143 -0.08 +0.13    -0.150 N 
DOCKED: ATOM     21  N00 UNK     1      20.520  41.248  18.232 -0.23 +0.22    -0.150 N 
DOCKED: ATOM     22  C01 UNK     1      18.688  36.069  21.485 -0.06 -0.21    +0.332 C 
DOCKED: ATOM     23  C01 UNK     1      24.703  43.735  16.890 -0.07 -0.34    +0.332 C 
DOCKED: ATOM     24  C01 UNK     1      19.605  33.821  21.872 -0.08 -0.11    +0.164 C 
DOCKED: ATOM     25  C01 UNK     1      23.787  45.984  16.503 -0.23 -0.15    +0.164 C 
DOCKED: ATOM     26  C01 UNK     1      17.701  38.234  21.177 -0.23 -0.09    +0.163 C 
DOCKED: ATOM     27  C01 UNK     1      25.691  41.571  17.198 -0.14 -0.15    +0.163 C 
DOCKED: ATOM     28 BH00 UNK     1      19.478  39.566  20.305 +0.08 -0.17    +0.188 HD
DOCKED: ATOM     29 BH00 UNK     1      23.914  40.239  18.069 +0.08 -0.20    +0.188 HD
DOCKED: ENDROOT
DOCKED: BRANCH  20  30
DOCKED: ATOM     30  C00 UNK     1      24.276  38.735  20.194 -0.10 -0.07    +0.079 A 
DOCKED: ATOM     31  C00 UNK     1      25.078  38.273  19.148 -0.16 -0.03    +0.036 A 
DOCKED: ATOM     32  C01 UNK     1      26.444  38.419  19.205 -0.20 -0.03    +0.031 A 
DOCKED: ATOM     33  C00 UNK     1      27.042  39.005  20.297 -0.12 -0.03    +0.025 A 
DOCKED: ATOM     34  C01 UNK     1      26.279  39.482  21.317 -0.08 -0.03    +0.031 A 
DOCKED: ATOM     35  C01 UNK     1      24.902  39.385  21.288 -0.06 -0.03    +0.036 A 
DOCKED: BRANCH  33  36
DOCKED: ATOM     36  N2  UNK     1      28.771  39.119  20.367 -0.04 +0.56    -0.399 N 
DOCKED: ATOM     37  H2a UNK     1      29.211  38.640  20.928 -0.09 -0.29    +0.156 HD
DOCKED: ATOM     38  H2b UNK     1      29.187  39.654  19.839 +0.03 -0.17    +0.156 HD
DOCKED: ENDBRANCH  33  36
DOCKED: ENDBRANCH  20  30
DOCKED: BRANCH  21  39
DOCKED: ATOM     39  C00 UNK     1      19.116  41.069  18.181 -0.36 -0.11    +0.079 A 
DOCKED: ATOM     40  C00 UNK     1      18.567  40.052  17.396 -0.39 -0.05    +0.036 A 
DOCKED: ATOM     41  C01 UNK     1      17.206  39.858  17.366 -0.47 -0.03    +0.031 A 
DOCKED: ATOM     42  C00 UNK     1      16.367  40.647  18.119 -0.33 -0.03    +0.025 A 
DOCKED: ATOM     43  C01 UNK     1      16.877  41.657  18.874 +0.01 -0.04    +0.031 A 
DOCKED: ATOM     44  C01 UNK     1      18.235  41.909  18.910 -0.45 -0.05    +0.036 A 
DOCKED: BRANCH  42  45
DOCKED: ATOM     45  N2  UNK     1      14.662  40.337  18.105 -0.18 +0.38    -0.399 N 
DOCKED: ATOM     46  H2a UNK     1      14.111  40.951  18.344 -0.01 -0.18    +0.156 HD
DOCKED: ATOM     47  H2b UNK     1      14.368  39.567  17.859 +0.13 -0.11    +0.156 HD
DOCKED: ENDBRANCH  42  45
DOCKED: ENDBRANCH  21  39
DOCKED: TORSDOF 4
DOCKED: TER
DOCKED: ENDMDL
________________________________________________________________________________


	BEGINNING GENETIC ALGORITHM DOCKING 9 of 25
Run: 9 Seed: 1742088383 460001898 [ Run 9 of 25 GA/GALS ]
Beginning LAMARCKIAN GENETIC ALGORITHM (LGA), with a maximum of 2500000 energy evaluations.

Final-Value: -10.113


	FINAL GENETIC ALGORITHM DOCKED STATE
	_______________________________________________


Detailed state:  trans 23.143 42.495 19.715 quatxyzw 0.505271 -0.097163 0.508628 0.690332 center 2.061 11.319 -0.000 ntor 4 94.8115 171.5839 33.3150 149.1482
State:	 23.143  42.495  19.715   0.698 -0.134  0.703 92.687     94.81  171.58   33.31  149.15

DOCKED: MODEL        9
DOCKED: USER    Run = 9
DOCKED: USER    DPF = final_struct_1LML_clean_h_TZ.dpf
DOCKED: USER  
DOCKED: USER    Estimated Free Energy of Binding    =   -7.70 kcal/mol  [=(1)+(2)+(3)-(4)]
DOCKED: USER    Estimated Inhibition Constant, Ki   =    2.26 uM (micromolar)  [Temperature = 298.15 K]
DOCKED: USER    
DOCKED: USER    (1) Final Intermolecular Energy     =   -8.90 kcal/mol
DOCKED: USER        vdW + Hbond + desolv Energy     =   -9.01 kcal/mol
DOCKED: USER        Electrostatic Energy            =   +0.12 kcal/mol
DOCKED: USER    (2) Final Total Internal Energy     =   -1.22 kcal/mol
DOCKED: USER    (3) Torsional Free Energy           =   +1.19 kcal/mol
DOCKED: USER    (4) Unbound System's Energy  [=(2)] =   -1.22 kcal/mol
DOCKED: USER    
DOCKED: USER    
DOCKED: USER    NEWDPF move final_struct.pdbqt
DOCKED: USER    NEWDPF about 2.061000 11.319000 -0.000000
DOCKED: USER    NEWDPF tran0 23.143375 42.495003 19.714686
DOCKED: USER    NEWDPF quaternion0 0.505271 -0.097163 0.508628 0.690332
DOCKED: USER    NEWDPF axisangle0 0.698377 -0.134297 0.703017 92.687135
DOCKED: USER    NEWDPF quat0 0.698377 -0.134297 0.703017 92.687135
DOCKED: USER    NEWDPF dihe0 94.81 171.58 33.31 149.15 
DOCKED: USER  keepresnum = 1 
DOCKED: USER  
DOCKED: REMARK  4 active torsions:
DOCKED: REMARK  status: ('A' for Active; 'I' for Inactive)
DOCKED: REMARK    1  A    between atoms: C00Q_4  and  N008_28 
DOCKED: REMARK    2  A    between atoms: C00Q_5  and  N008_29 
DOCKED: REMARK    3  A    between atoms: C00R_6  and  N2_24 
DOCKED: REMARK    4  A    between atoms: C00R_7  and  N2_25 
DOCKED: USER                              x       y       z     vdW  Elec       q    Type
DOCKED: USER                           _______ _______ _______ _____ _____    ______ ____
DOCKED: ROOT
DOCKED: ATOM      1 Pd02 UNK     1      23.143  42.495  19.715 -0.03 -0.00    +0.000 Pd
DOCKED: ATOM      2  C00 UNK     1      25.867  43.653  19.532 -0.07 -0.11    +0.162 C 
DOCKED: ATOM      3  C00 UNK     1      20.420  41.337  19.896 -0.21 -0.17    +0.162 C 
DOCKED: ATOM      4  C00 UNK     1      27.206  43.993  21.597 +0.00 -0.15    +0.285 C 
DOCKED: ATOM      5  C00 UNK     1      19.080  40.997  17.832 -0.27 -0.42    +0.285 C 
DOCKED: ATOM      6  C00 UNK     1      26.087  43.394  20.946 +0.21 -0.10    +0.192 C 
DOCKED: ATOM      7  C00 UNK     1      20.200  41.596  18.483 -0.30 -0.26    +0.192 C 
DOCKED: ATOM      8  N00 UNK     1      24.836  43.223  18.919 -0.06 +0.23    -0.281 N 
DOCKED: ATOM      9  N00 UNK     1      21.451  41.767  20.510 -0.11 +0.25    -0.281 N 
DOCKED: ATOM     10  N00 UNK     1      25.388  42.590  21.686 -0.10 +0.08    -0.140 NA
DOCKED: ATOM     11  N00 UNK     1      20.899  42.400  17.743 -4.20 +0.24    -0.140 NA
DOCKED: ATOM     12  N00 UNK     1      26.867  44.327  18.855 -0.04 +0.19    -0.286 N 
DOCKED: ATOM     13  N00 UNK     1      19.419  40.663  20.574 -0.07 +0.29    -0.286 N 
DOCKED: ATOM     14  N00 UNK     1      28.023  44.812  20.841 -0.10 +0.15    -0.268 N 
DOCKED: ATOM     15  N00 UNK     1      18.264  40.178  18.589 -0.21 +0.29    -0.268 N 
DOCKED: ATOM     16  O00 UNK     1      28.718  45.643  18.855 -0.03 +0.15    -0.246 OA
DOCKED: ATOM     17  O00 UNK     1      17.568  39.347  20.574 -0.29 +0.19    -0.246 OA
DOCKED: ATOM     18  O00 UNK     1      27.481  43.851  22.805 -0.12 +0.13    -0.265 OA
DOCKED: ATOM     19  O00 UNK     1      18.806  41.139  16.624 +0.15 +0.53    -0.265 OA
DOCKED: ATOM     20  N00 UNK     1      24.269  42.021  21.330 -0.10 +0.10    -0.150 N 
DOCKED: ATOM     21  N00 UNK     1      22.018  42.970  18.098 -0.27 +0.20    -0.150 N 
DOCKED: ATOM     22  C01 UNK     1      27.930  44.953  19.465 -0.05 -0.20    +0.332 C 
DOCKED: ATOM     23  C01 UNK     1      18.357  40.037  19.964 -0.03 -0.33    +0.332 C 
DOCKED: ATOM     24  C01 UNK     1      29.177  45.479  21.518 -0.11 -0.08    +0.164 C 
DOCKED: ATOM     25  C01 UNK     1      17.110  39.511  17.912 -0.43 -0.15    +0.164 C 
DOCKED: ATOM     26  C01 UNK     1      26.811  44.467  17.400 -0.05 -0.12    +0.163 C 
DOCKED: ATOM     27  C01 UNK     1      19.476  40.523  22.029 -0.02 -0.15    +0.163 C 
DOCKED: ATOM     28 BH00 UNK     1      24.870  43.248  18.061 +0.07 -0.17    +0.188 HD
DOCKED: ATOM     29 BH00 UNK     1      21.417  41.742  21.368 +0.08 -0.15    +0.188 HD
DOCKED: ENDROOT
DOCKED: BRANCH  20  30
DOCKED: ATOM     30  C00 UNK     1      23.789  41.103  22.299 -0.07 -0.06    +0.079 A 
DOCKED: ATOM     31  C00 UNK     1      24.034  39.736  22.149 -0.04 -0.03    +0.036 A 
DOCKED: ATOM     32  C01 UNK     1      23.547  38.840  23.071 -0.03 -0.02    +0.031 A 
DOCKED: ATOM     33  C00 UNK     1      22.798  39.271  24.142 -0.03 -0.02    +0.025 A 
DOCKED: ATOM     34  C01 UNK     1      22.566  40.600  24.319 -0.09 -0.02    +0.031 A 
DOCKED: ATOM     35  C01 UNK     1      23.063  41.539  23.436 -0.14 -0.02    +0.036 A 
DOCKED: BRANCH  33  36
DOCKED: ATOM     36  N2  UNK     1      22.147  38.111  25.253 +0.01 +0.25    -0.399 N 
DOCKED: ATOM     37  H2a UNK     1      22.574  37.917  25.973 +0.01 -0.10    +0.156 HD
DOCKED: ATOM     38  H2b UNK     1      21.395  37.729  25.084 +0.02 -0.09    +0.156 HD
DOCKED: ENDBRANCH  33  36
DOCKED: ENDBRANCH  20  30
DOCKED: BRANCH  21  39
DOCKED: ATOM     39  C00 UNK     1      22.498  43.887  17.131 -0.35 -0.11    +0.079 A 
DOCKED: ATOM     40  C00 UNK     1      23.171  43.422  15.999 -0.32 -0.06    +0.036 A 
DOCKED: ATOM     41  C01 UNK     1      23.615  44.306  15.044 -0.36 -0.05    +0.031 A 
DOCKED: ATOM     42  C00 UNK     1      23.387  45.657  15.178 -0.21 -0.03    +0.025 A 
DOCKED: ATOM     43  C01 UNK     1      22.753  46.134  16.282 -0.29 -0.03    +0.031 A 
DOCKED: ATOM     44  C01 UNK     1      22.318  45.286  17.282 -0.38 -0.04    +0.036 A 
DOCKED: BRANCH  42  45
DOCKED: ATOM     45  N2  UNK     1      23.906  46.739  13.927 -0.13 +0.32    -0.399 N 
DOCKED: ATOM     46  H2a UNK     1      23.674  47.565  13.949 +0.10 -0.11    +0.156 HD
DOCKED: ATOM     47  H2b UNK     1      24.395  46.447  13.283 +0.06 -0.13    +0.156 HD
DOCKED: ENDBRANCH  42  45
DOCKED: ENDBRANCH  21  39
DOCKED: TORSDOF 4
DOCKED: TER
DOCKED: ENDMDL
________________________________________________________________________________


	BEGINNING GENETIC ALGORITHM DOCKING 10 of 25
Run: 10 Seed: 806977554 1130574378 [ Run 10 of 25 GA/GALS ]
Beginning LAMARCKIAN GENETIC ALGORITHM (LGA), with a maximum of 2500000 energy evaluations.

Final-Value: -11.121


	FINAL GENETIC ALGORITHM DOCKED STATE
	_______________________________________________


Detailed state:  trans 21.733 39.885 19.123 quatxyzw 0.584182 -0.338862 0.250893 -0.693511 center 2.061 11.319 -0.000 ntor 4 72.2014 -156.0523 -136.7654 175.3938
State:	 21.733  39.885  19.123   0.811 -0.470  0.348 -92.183     72.20 -156.05 -136.77  175.39

DOCKED: MODEL       10
DOCKED: USER    Run = 10
DOCKED: USER    DPF = final_struct_1LML_clean_h_TZ.dpf
DOCKED: USER  
DOCKED: USER    Estimated Free Energy of Binding    =   -8.82 kcal/mol  [=(1)+(2)+(3)-(4)]
DOCKED: USER    Estimated Inhibition Constant, Ki   =  339.78 nM (nanomolar)  [Temperature = 298.15 K]
DOCKED: USER    
DOCKED: USER    (1) Final Intermolecular Energy     =  -10.02 kcal/mol
DOCKED: USER        vdW + Hbond + desolv Energy     =  -10.08 kcal/mol
DOCKED: USER        Electrostatic Energy            =   +0.06 kcal/mol
DOCKED: USER    (2) Final Total Internal Energy     =   -1.10 kcal/mol
DOCKED: USER    (3) Torsional Free Energy           =   +1.19 kcal/mol
DOCKED: USER    (4) Unbound System's Energy  [=(2)] =   -1.10 kcal/mol
DOCKED: USER    
DOCKED: USER    
DOCKED: USER    NEWDPF move final_struct.pdbqt
DOCKED: USER    NEWDPF about 2.061000 11.319000 -0.000000
DOCKED: USER    NEWDPF tran0 21.733452 39.885402 19.123032
DOCKED: USER    NEWDPF quaternion0 0.584182 -0.338862 0.250893 -0.693511
DOCKED: USER    NEWDPF axisangle0 0.810861 -0.470350 0.348246 -92.182690
DOCKED: USER    NEWDPF quat0 0.810861 -0.470350 0.348246 -92.182690
DOCKED: USER    NEWDPF dihe0 72.20 -156.05 -136.77 175.39 
DOCKED: USER  keepresnum = 1 
DOCKED: USER  
DOCKED: REMARK  4 active torsions:
DOCKED: REMARK  status: ('A' for Active; 'I' for Inactive)
DOCKED: REMARK    1  A    between atoms: C00Q_4  and  N008_28 
DOCKED: REMARK    2  A    between atoms: C00Q_5  and  N008_29 
DOCKED: REMARK    3  A    between atoms: C00R_6  and  N2_24 
DOCKED: REMARK    4  A    between atoms: C00R_7  and  N2_25 
DOCKED: USER                              x       y       z     vdW  Elec       q    Type
DOCKED: USER                           _______ _______ _______ _____ _____    ______ ____
DOCKED: ROOT
DOCKED: ATOM      1 Pd02 UNK     1      21.733  39.885  19.123 -0.03 -0.00    +0.000 Pd
DOCKED: ATOM      2  C00 UNK     1      20.178  37.883  20.661 -0.09 -0.12    +0.162 C 
DOCKED: ATOM      3  C00 UNK     1      23.288  41.888  17.586 -0.18 -0.21    +0.162 C 
DOCKED: ATOM      4  C00 UNK     1      21.175  35.664  21.164 -0.18 -0.22    +0.285 C 
DOCKED: ATOM      5  C00 UNK     1      22.291  44.107  17.082 -0.28 -0.41    +0.285 C 
DOCKED: ATOM      6  C00 UNK     1      21.341  37.014  20.732 -0.15 -0.14    +0.192 C 
DOCKED: ATOM      7  C00 UNK     1      22.126  42.757  17.514 -0.30 -0.30    +0.192 C 
DOCKED: ATOM      8  N00 UNK     1      20.247  39.067  20.196 -0.02 +0.24    -0.281 N 
DOCKED: ATOM      9  N00 UNK     1      23.219  40.704  18.051 -0.07 +0.33    -0.281 N 
DOCKED: ATOM     10  N00 UNK     1      22.568  37.371  20.506 -0.14 +0.11    -0.140 NA
DOCKED: ATOM     11  N00 UNK     1      20.899  42.400  17.740 -4.20 +0.24    -0.140 NA
DOCKED: ATOM     12  N00 UNK     1      18.997  37.396  21.191 -0.04 +0.19    -0.286 N 
DOCKED: ATOM     13  N00 UNK     1      24.470  42.375  17.055 -0.08 +0.32    -0.286 N 
DOCKED: ATOM     14  N00 UNK     1      19.896  35.246  21.479 -0.11 +0.19    -0.268 N 
DOCKED: ATOM     15  N00 UNK     1      23.571  44.525  16.767 -0.14 +0.31    -0.268 N 
DOCKED: ATOM     16  O00 UNK     1      17.715  35.664  21.909 -0.08 +0.14    -0.246 OA
DOCKED: ATOM     17  O00 UNK     1      25.752  44.107  16.337 -0.08 +0.22    -0.246 OA
DOCKED: ATOM     18  O00 UNK     1      22.099  34.831  21.249 -0.21 +0.22    -0.265 OA
DOCKED: ATOM     19  O00 UNK     1      21.367  44.940  16.998 +0.01 +0.41    -0.265 OA
DOCKED: ATOM     20  N00 UNK     1      22.938  38.517  20.005 -0.09 +0.13    -0.150 N 
DOCKED: ATOM     21  N00 UNK     1      20.528  41.254  18.241 -0.23 +0.22    -0.150 N 
DOCKED: ATOM     22  C01 UNK     1      18.799  36.087  21.568 -0.06 -0.21    +0.332 C 
DOCKED: ATOM     23  C01 UNK     1      24.668  43.683  16.678 -0.08 -0.35    +0.332 C 
DOCKED: ATOM     24  C01 UNK     1      19.700  33.823  21.893 -0.07 -0.11    +0.164 C 
DOCKED: ATOM     25  C01 UNK     1      23.767  45.948  16.353 -0.24 -0.16    +0.164 C 
DOCKED: ATOM     26  C01 UNK     1      17.830  38.268  21.326 -0.22 -0.10    +0.163 C 
DOCKED: ATOM     27  C01 UNK     1      25.637  41.502  16.920 -0.17 -0.15    +0.163 C 
DOCKED: ATOM     28 BH00 UNK     1      19.576  39.578  20.362 +0.08 -0.16    +0.188 HD
DOCKED: ATOM     29 BH00 UNK     1      23.891  40.193  17.884 +0.08 -0.20    +0.188 HD
DOCKED: ENDROOT
DOCKED: BRANCH  20  30
DOCKED: ATOM     30  C00 UNK     1      24.347  38.673  19.978 -0.11 -0.07    +0.079 A 
DOCKED: ATOM     31  C00 UNK     1      25.071  38.293  18.846 -0.18 -0.03    +0.036 A 
DOCKED: ATOM     32  C01 UNK     1      26.440  38.417  18.825 -0.23 -0.03    +0.031 A 
DOCKED: ATOM     33  C00 UNK     1      27.118  38.899  19.921 -0.14 -0.03    +0.025 A 
DOCKED: ATOM     34  C01 UNK     1      26.432  39.296  21.026 -0.09 -0.04    +0.031 A 
DOCKED: ATOM     35  C01 UNK     1      25.054  39.219  21.080 -0.08 -0.03    +0.036 A 
DOCKED: BRANCH  33  36
DOCKED: ATOM     36  N2  UNK     1      28.849  38.986  19.886 -0.04 +0.52    -0.399 N 
DOCKED: ATOM     37  H2a UNK     1      29.241  39.578  19.403 +0.04 -0.16    +0.156 HD
DOCKED: ATOM     38  H2b UNK     1      29.317  38.436  20.354 -0.02 -0.26    +0.156 HD
DOCKED: ENDBRANCH  33  36
DOCKED: ENDBRANCH  20  30
DOCKED: BRANCH  21  39
DOCKED: ATOM     39  C00 UNK     1      19.120  41.097  18.268 -0.36 -0.11    +0.079 A 
DOCKED: ATOM     40  C00 UNK     1      18.318  42.071  18.869 -0.49 -0.05    +0.036 A 
DOCKED: ATOM     41  C01 UNK     1      16.950  41.937  18.874 +0.35 -0.04    +0.031 A 
DOCKED: ATOM     42  C00 UNK     1      16.349  40.854  18.273 -0.23 -0.03    +0.025 A 
DOCKED: ATOM     43  C01 UNK     1      17.110  39.883  17.701 -0.48 -0.03    +0.031 A 
DOCKED: ATOM     44  C01 UNK     1      18.489  39.960  17.700 -0.37 -0.04    +0.036 A 
DOCKED: BRANCH  42  45
DOCKED: ATOM     45  N2  UNK     1      14.619  40.745  18.243 -0.17 +0.43    -0.399 N 
DOCKED: ATOM     46  H2a UNK     1      14.237  39.980  18.164 +0.11 -0.13    +0.156 HD
DOCKED: ATOM     47  H2b UNK     1      14.143  41.458  18.308 -0.23 -0.21    +0.156 HD
DOCKED: ENDBRANCH  42  45
DOCKED: ENDBRANCH  21  39
DOCKED: TORSDOF 4
DOCKED: TER
DOCKED: ENDMDL
________________________________________________________________________________


	BEGINNING GENETIC ALGORITHM DOCKING 11 of 25
Run: 11 Seed: 1490723112 591526190 [ Run 11 of 25 GA/GALS ]
Beginning LAMARCKIAN GENETIC ALGORITHM (LGA), with a maximum of 2500000 energy evaluations.

Final-Value: -11.201


	FINAL GENETIC ALGORITHM DOCKED STATE
	_______________________________________________


Detailed state:  trans 21.713 39.969 19.283 quatxyzw -0.571563 0.362548 -0.319375 0.663230 center 2.061 11.319 -0.000 ntor 4 -69.6697 6.9193 -153.9143 -27.4915
State:	 21.713  39.969  19.283  -0.764  0.484 -0.427 96.907    -69.67    6.92 -153.91  -27.49

DOCKED: MODEL       11
DOCKED: USER    Run = 11
DOCKED: USER    DPF = final_struct_1LML_clean_h_TZ.dpf
DOCKED: USER  
DOCKED: USER    Estimated Free Energy of Binding    =   -8.79 kcal/mol  [=(1)+(2)+(3)-(4)]
DOCKED: USER    Estimated Inhibition Constant, Ki   =  361.22 nM (nanomolar)  [Temperature = 298.15 K]
DOCKED: USER    
DOCKED: USER    (1) Final Intermolecular Energy     =   -9.98 kcal/mol
DOCKED: USER        vdW + Hbond + desolv Energy     =  -10.06 kcal/mol
DOCKED: USER        Electrostatic Energy            =   +0.08 kcal/mol
DOCKED: USER    (2) Final Total Internal Energy     =   -1.22 kcal/mol
DOCKED: USER    (3) Torsional Free Energy           =   +1.19 kcal/mol
DOCKED: USER    (4) Unbound System's Energy  [=(2)] =   -1.22 kcal/mol
DOCKED: USER    
DOCKED: USER    
DOCKED: USER    NEWDPF move final_struct.pdbqt
DOCKED: USER    NEWDPF about 2.061000 11.319000 -0.000000
DOCKED: USER    NEWDPF tran0 21.713218 39.968774 19.283251
DOCKED: USER    NEWDPF quaternion0 -0.571563 0.362548 -0.319375 0.663230
DOCKED: USER    NEWDPF axisangle0 -0.763697 0.484421 -0.426735 96.906653
DOCKED: USER    NEWDPF quat0 -0.763697 0.484421 -0.426735 96.906653
DOCKED: USER    NEWDPF dihe0 -69.67 6.92 -153.91 -27.49 
DOCKED: USER  keepresnum = 1 
DOCKED: USER  
DOCKED: REMARK  4 active torsions:
DOCKED: REMARK  status: ('A' for Active; 'I' for Inactive)
DOCKED: REMARK    1  A    between atoms: C00Q_4  and  N008_28 
DOCKED: REMARK    2  A    between atoms: C00Q_5  and  N008_29 
DOCKED: REMARK    3  A    between atoms: C00R_6  and  N2_24 
DOCKED: REMARK    4  A    between atoms: C00R_7  and  N2_25 
DOCKED: USER                              x       y       z     vdW  Elec       q    Type
DOCKED: USER                           _______ _______ _______ _____ _____    ______ ____
DOCKED: ROOT
DOCKED: ATOM      1 Pd02 UNK     1      21.713  39.969  19.283 -0.02 -0.00    +0.000 Pd
DOCKED: ATOM      2  C00 UNK     1      20.107  37.873  20.634 -0.09 -0.12    +0.162 C 
DOCKED: ATOM      3  C00 UNK     1      23.318  42.064  17.933 -0.16 -0.20    +0.162 C 
DOCKED: ATOM      4  C00 UNK     1      21.183  35.741  21.318 -0.17 -0.21    +0.285 C 
DOCKED: ATOM      5  C00 UNK     1      22.243  44.196  17.248 -0.28 -0.40    +0.285 C 
DOCKED: ATOM      6  C00 UNK     1      21.309  37.094  20.885 -0.13 -0.14    +0.192 C 
DOCKED: ATOM      7  C00 UNK     1      22.117  42.843  17.682 -0.30 -0.29    +0.192 C 
DOCKED: ATOM      8  N00 UNK     1      20.155  39.054  20.157 -0.03 +0.24    -0.281 N 
DOCKED: ATOM      9  N00 UNK     1      23.271  40.884  18.410 -0.04 +0.31    -0.281 N 
DOCKED: ATOM     10  N00 UNK     1      22.526  37.540  20.823 -0.11 +0.11    -0.140 NA
DOCKED: ATOM     11  N00 UNK     1      20.900  42.398  17.743 -4.18 +0.24    -0.140 NA
DOCKED: ATOM     12  N00 UNK     1      18.902  37.305  21.006 -0.05 +0.19    -0.286 N 
DOCKED: ATOM     13  N00 UNK     1      24.524  42.632  17.561 -0.05 +0.30    -0.286 N 
DOCKED: ATOM     14  N00 UNK     1      19.906  35.232  21.462 -0.11 +0.19    -0.268 N 
DOCKED: ATOM     15  N00 UNK     1      23.520  44.706  17.105 -0.14 +0.30    -0.268 N 
DOCKED: ATOM     16  O00 UNK     1      17.662  35.490  21.576 -0.09 +0.14    -0.246 OA
DOCKED: ATOM     17  O00 UNK     1      25.764  44.447  16.990 -0.05 +0.21    -0.246 OA
DOCKED: ATOM     18  O00 UNK     1      22.143  34.980  21.549 -0.27 +0.22    -0.265 OA
DOCKED: ATOM     19  O00 UNK     1      21.282  44.957  17.018 +0.08 +0.41    -0.265 OA
DOCKED: ATOM     20  N00 UNK     1      22.878  38.705  20.354 -0.07 +0.13    -0.150 N 
DOCKED: ATOM     21  N00 UNK     1      20.547  41.233  18.213 -0.23 +0.22    -0.150 N 
DOCKED: ATOM     22  C01 UNK     1      18.749  35.990  21.380 -0.07 -0.21    +0.332 C 
DOCKED: ATOM     23  C01 UNK     1      24.678  43.948  17.186 -0.06 -0.33    +0.332 C 
DOCKED: ATOM     24  C01 UNK     1      19.757  33.803  21.876 -0.05 -0.11    +0.164 C 
DOCKED: ATOM     25  C01 UNK     1      23.669  46.134  16.691 -0.25 -0.15    +0.164 C 
DOCKED: ATOM     26  C01 UNK     1      17.668  38.089  20.958 -0.23 -0.09    +0.163 C 
DOCKED: ATOM     27  C01 UNK     1      25.758  41.848  17.608 -0.10 -0.14    +0.163 C 
DOCKED: ATOM     28 BH00 UNK     1      19.432  39.515  20.217 +0.08 -0.17    +0.188 HD
DOCKED: ATOM     29 BH00 UNK     1      23.994  40.423  18.349 +0.07 -0.19    +0.188 HD
DOCKED: ENDROOT
DOCKED: BRANCH  20  30
DOCKED: ATOM     30  C00 UNK     1      24.262  38.966  20.519 -0.08 -0.07    +0.079 A 
DOCKED: ATOM     31  C00 UNK     1      25.197  38.326  19.701 -0.15 -0.04    +0.036 A 
DOCKED: ATOM     32  C01 UNK     1      26.542  38.555  19.875 -0.17 -0.04    +0.031 A 
DOCKED: ATOM     33  C00 UNK     1      26.987  39.400  20.866 -0.09 -0.03    +0.025 A 
DOCKED: ATOM     34  C01 UNK     1      26.094  40.051  21.659 -0.05 -0.03    +0.031 A 
DOCKED: ATOM     35  C01 UNK     1      24.733  39.876  21.499 -0.04 -0.03    +0.036 A 
DOCKED: BRANCH  33  36
DOCKED: ATOM     36  N2  UNK     1      28.691  39.621  21.100 -0.03 +0.52    -0.399 N 
DOCKED: ATOM     37  H2a UNK     1      29.169  38.980  21.414 -0.08 -0.27    +0.156 HD
DOCKED: ATOM     38  H2b UNK     1      29.058  40.372  20.900 +0.02 -0.16    +0.156 HD
DOCKED: ENDBRANCH  33  36
DOCKED: ENDBRANCH  20  30
DOCKED: BRANCH  21  39
DOCKED: ATOM     39  C00 UNK     1      19.164  40.972  18.048 -0.35 -0.11    +0.079 A 
DOCKED: ATOM     40  C00 UNK     1      18.731  40.097  17.049 -0.38 -0.05    +0.036 A 
DOCKED: ATOM     41  C01 UNK     1      17.392  39.819  16.903 -0.45 -0.03    +0.031 A 
DOCKED: ATOM     42  C00 UNK     1      16.462  40.382  17.747 -0.36 -0.03    +0.025 A 
DOCKED: ATOM     43  C01 UNK     1      16.859  41.254  18.713 -0.27 -0.04    +0.031 A 
DOCKED: ATOM     44  C01 UNK     1      18.189  41.587  18.876 -0.47 -0.04    +0.036 A 
DOCKED: BRANCH  42  45
DOCKED: ATOM     45  N2  UNK     1      14.789  39.965  17.575 -0.24 +0.34    -0.399 N 
DOCKED: ATOM     46  H2a UNK     1      14.553  39.346  17.029 +0.13 -0.11    +0.156 HD
DOCKED: ATOM     47  H2b UNK     1      14.194  40.378  18.038 +0.10 -0.15    +0.156 HD
DOCKED: ENDBRANCH  42  45
DOCKED: ENDBRANCH  21  39
DOCKED: TORSDOF 4
DOCKED: TER
DOCKED: ENDMDL
________________________________________________________________________________


	BEGINNING GENETIC ALGORITHM DOCKING 12 of 25
Run: 12 Seed: 1860115221 1477750010 [ Run 12 of 25 GA/GALS ]
Beginning LAMARCKIAN GENETIC ALGORITHM (LGA), with a maximum of 2500000 energy evaluations.

Final-Value: -10.818


	FINAL GENETIC ALGORITHM DOCKED STATE
	_______________________________________________


Detailed state:  trans 21.766 39.902 19.146 quatxyzw 0.582866 -0.330528 0.246517 -0.700176 center 2.061 11.319 -0.000 ntor 4 -115.8701 -165.4951 -133.3346 -179.3256
State:	 21.766  39.902  19.146   0.816 -0.463  0.345 -91.118   -115.87 -165.50 -133.33 -179.33

DOCKED: MODEL       12
DOCKED: USER    Run = 12
DOCKED: USER    DPF = final_struct_1LML_clean_h_TZ.dpf
DOCKED: USER  
DOCKED: USER    Estimated Free Energy of Binding    =   -8.58 kcal/mol  [=(1)+(2)+(3)-(4)]
DOCKED: USER    Estimated Inhibition Constant, Ki   =  510.64 nM (nanomolar)  [Temperature = 298.15 K]
DOCKED: USER    
DOCKED: USER    (1) Final Intermolecular Energy     =   -9.78 kcal/mol
DOCKED: USER        vdW + Hbond + desolv Energy     =   -9.84 kcal/mol
DOCKED: USER        Electrostatic Energy            =   +0.06 kcal/mol
DOCKED: USER    (2) Final Total Internal Energy     =   -1.04 kcal/mol
DOCKED: USER    (3) Torsional Free Energy           =   +1.19 kcal/mol
DOCKED: USER    (4) Unbound System's Energy  [=(2)] =   -1.04 kcal/mol
DOCKED: USER    
DOCKED: USER    
DOCKED: USER    NEWDPF move final_struct.pdbqt
DOCKED: USER    NEWDPF about 2.061000 11.319000 -0.000000
DOCKED: USER    NEWDPF tran0 21.766332 39.901916 19.146141
DOCKED: USER    NEWDPF quaternion0 0.582866 -0.330528 0.246517 -0.700176
DOCKED: USER    NEWDPF axisangle0 0.816374 -0.462944 0.345277 -91.117688
DOCKED: USER    NEWDPF quat0 0.816374 -0.462944 0.345277 -91.117688
DOCKED: USER    NEWDPF dihe0 -115.87 -165.50 -133.33 -179.33 
DOCKED: USER  keepresnum = 1 
DOCKED: USER  
DOCKED: REMARK  4 active torsions:
DOCKED: REMARK  status: ('A' for Active; 'I' for Inactive)
DOCKED: REMARK    1  A    between atoms: C00Q_4  and  N008_28 
DOCKED: REMARK    2  A    between atoms: C00Q_5  and  N008_29 
DOCKED: REMARK    3  A    between atoms: C00R_6  and  N2_24 
DOCKED: REMARK    4  A    between atoms: C00R_7  and  N2_25 
DOCKED: USER                              x       y       z     vdW  Elec       q    Type
DOCKED: USER                           _______ _______ _______ _____ _____    ______ ____
DOCKED: ROOT
DOCKED: ATOM      1 Pd02 UNK     1      21.766  39.902  19.146 -0.03 -0.00    +0.000 Pd
DOCKED: ATOM      2  C00 UNK     1      20.242  37.917  20.737 -0.08 -0.12    +0.162 C 
DOCKED: ATOM      3  C00 UNK     1      23.290  41.887  17.556 -0.19 -0.22    +0.162 C 
DOCKED: ATOM      4  C00 UNK     1      21.248  35.703  21.243 -0.17 -0.21    +0.285 C 
DOCKED: ATOM      5  C00 UNK     1      22.284  44.100  17.049 -0.28 -0.41    +0.285 C 
DOCKED: ATOM      6  C00 UNK     1      21.406  37.048  20.794 -0.14 -0.14    +0.192 C 
DOCKED: ATOM      7  C00 UNK     1      22.127  42.756  17.498 -0.30 -0.30    +0.192 C 
DOCKED: ATOM      8  N00 UNK     1      20.302  39.097  20.258 -0.02 +0.23    -0.281 N 
DOCKED: ATOM      9  N00 UNK     1      23.230  40.707  18.035 -0.07 +0.33    -0.281 N 
DOCKED: ATOM     10  N00 UNK     1      22.628  37.402  20.539 -0.14 +0.11    -0.140 NA
DOCKED: ATOM     11  N00 UNK     1      20.905  42.402  17.753 -4.11 +0.24    -0.140 NA
DOCKED: ATOM     12  N00 UNK     1      19.072  37.437  21.297 -0.04 +0.19    -0.286 N 
DOCKED: ATOM     13  N00 UNK     1      24.461  42.367  16.995 -0.08 +0.33    -0.286 N 
DOCKED: ATOM     14  N00 UNK     1      19.976  35.289  21.589 -0.11 +0.19    -0.268 N 
DOCKED: ATOM     15  N00 UNK     1      23.557  44.514  16.703 -0.14 +0.31    -0.268 N 
DOCKED: ATOM     16  O00 UNK     1      17.804  35.713  22.060 -0.07 +0.14    -0.246 OA
DOCKED: ATOM     17  O00 UNK     1      25.728  44.091  16.233 -0.09 +0.23    -0.246 OA
DOCKED: ATOM     18  O00 UNK     1      22.173  34.870  21.319 -0.25 +0.22    -0.265 OA
DOCKED: ATOM     19  O00 UNK     1      21.359  44.934  16.974 +0.11 +0.41    -0.265 OA
DOCKED: ATOM     20  N00 UNK     1      22.988  38.542  20.018 -0.09 +0.13    -0.150 N 
DOCKED: ATOM     21  N00 UNK     1      20.544  41.262  18.274 -0.22 +0.22    -0.150 N 
DOCKED: ATOM     22  C01 UNK     1      18.881  36.133  21.692 -0.05 -0.21    +0.332 C 
DOCKED: ATOM     23  C01 UNK     1      24.652  43.671  16.600 -0.09 -0.36    +0.332 C 
DOCKED: ATOM     24  C01 UNK     1      19.787  33.871  22.023 -0.09 -0.11    +0.164 C 
DOCKED: ATOM     25  C01 UNK     1      23.745  45.933  16.269 -0.24 -0.16    +0.164 C 
DOCKED: ATOM     26  C01 UNK     1      17.908  38.311  21.446 -0.22 -0.10    +0.163 C 
DOCKED: ATOM     27  C01 UNK     1      25.624  41.492  16.846 -0.17 -0.15    +0.163 C 
DOCKED: ATOM     28 BH00 UNK     1      19.635  39.609  20.432 +0.08 -0.16    +0.188 HD
DOCKED: ATOM     29 BH00 UNK     1      23.898  40.195  17.860 +0.08 -0.20    +0.188 HD
DOCKED: ENDROOT
DOCKED: BRANCH  20  30
DOCKED: ATOM     30  C00 UNK     1      24.396  38.697  19.961 -0.11 -0.07    +0.079 A 
DOCKED: ATOM     31  C00 UNK     1      25.088  38.371  18.792 -0.18 -0.03    +0.036 A 
DOCKED: ATOM     32  C01 UNK     1      26.457  38.494  18.740 -0.23 -0.03    +0.031 A 
DOCKED: ATOM     33  C00 UNK     1      27.166  38.921  19.839 -0.14 -0.03    +0.025 A 
DOCKED: ATOM     34  C01 UNK     1      26.510  39.265  20.981 -0.10 -0.04    +0.031 A 
DOCKED: ATOM     35  C01 UNK     1      25.134  39.188  21.068 -0.08 -0.04    +0.036 A 
DOCKED: BRANCH  33  36
DOCKED: ATOM     36  N2  UNK     1      28.896  39.006  19.762 -0.04 +0.50    -0.399 N 
DOCKED: ATOM     37  H2a UNK     1      29.375  38.503  20.267 +0.00 -0.25    +0.156 HD
DOCKED: ATOM     38  H2b UNK     1      29.274  39.553  19.216 +0.04 -0.16    +0.156 HD
DOCKED: ENDBRANCH  33  36
DOCKED: ENDBRANCH  20  30
DOCKED: BRANCH  21  39
DOCKED: ATOM     39  C00 UNK     1      19.136  41.106  18.332 -0.36 -0.11    +0.079 A 
DOCKED: ATOM     40  C00 UNK     1      18.338  42.135  18.839 -0.47 -0.05    +0.036 A 
DOCKED: ATOM     41  C01 UNK     1      16.971  41.999  18.872 +0.41 -0.04    +0.031 A 
DOCKED: ATOM     42  C00 UNK     1      16.366  40.860  18.391 -0.33 -0.03    +0.025 A 
DOCKED: ATOM     43  C01 UNK     1      17.124  39.837  17.913 -0.48 -0.03    +0.031 A 
DOCKED: ATOM     44  C01 UNK     1      18.503  39.916  17.889 -0.36 -0.04    +0.036 A 
DOCKED: BRANCH  42  45
DOCKED: ATOM     45  N2  UNK     1      14.637  40.746  18.391 -0.06 +0.43    -0.399 N 
DOCKED: ATOM     46  H2a UNK     1      14.256  39.986  18.272 +0.12 -0.13    +0.156 HD
DOCKED: ATOM     47  H2b UNK     1      14.160  41.452  18.509 -0.23 -0.21    +0.156 HD
DOCKED: ENDBRANCH  42  45
DOCKED: ENDBRANCH  21  39
DOCKED: TORSDOF 4
DOCKED: TER
DOCKED: ENDMDL
________________________________________________________________________________


	BEGINNING GENETIC ALGORITHM DOCKING 13 of 25
Run: 13 Seed: 1077733069 1041950386 [ Run 13 of 25 GA/GALS ]
Beginning LAMARCKIAN GENETIC ALGORITHM (LGA), with a maximum of 2500000 energy evaluations.

Final-Value: -10.974


	FINAL GENETIC ALGORITHM DOCKED STATE
	_______________________________________________


Detailed state:  trans 21.714 39.987 19.310 quatxyzw 0.569396 -0.363698 0.327617 -0.660438 center 2.061 11.319 -0.000 ntor 4 106.9933 -155.8198 -152.2248 -37.3874
State:	 21.714  39.987  19.310   0.758 -0.484  0.436 -97.333    106.99 -155.82 -152.22  -37.39

DOCKED: MODEL       13
DOCKED: USER    Run = 13
DOCKED: USER    DPF = final_struct_1LML_clean_h_TZ.dpf
DOCKED: USER  
DOCKED: USER    Estimated Free Energy of Binding    =   -8.57 kcal/mol  [=(1)+(2)+(3)-(4)]
DOCKED: USER    Estimated Inhibition Constant, Ki   =  522.36 nM (nanomolar)  [Temperature = 298.15 K]
DOCKED: USER    
DOCKED: USER    (1) Final Intermolecular Energy     =   -9.76 kcal/mol
DOCKED: USER        vdW + Hbond + desolv Energy     =   -9.84 kcal/mol
DOCKED: USER        Electrostatic Energy            =   +0.08 kcal/mol
DOCKED: USER    (2) Final Total Internal Energy     =   -1.21 kcal/mol
DOCKED: USER    (3) Torsional Free Energy           =   +1.19 kcal/mol
DOCKED: USER    (4) Unbound System's Energy  [=(2)] =   -1.21 kcal/mol
DOCKED: USER    
DOCKED: USER    
DOCKED: USER    NEWDPF move final_struct.pdbqt
DOCKED: USER    NEWDPF about 2.061000 11.319000 -0.000000
DOCKED: USER    NEWDPF tran0 21.713668 39.987120 19.309913
DOCKED: USER    NEWDPF quaternion0 0.569396 -0.363698 0.327617 -0.660438
DOCKED: USER    NEWDPF axisangle0 0.758305 -0.484362 0.436311 -97.333453
DOCKED: USER    NEWDPF quat0 0.758305 -0.484362 0.436311 -97.333453
DOCKED: USER    NEWDPF dihe0 106.99 -155.82 -152.22 -37.39 
DOCKED: USER  keepresnum = 1 
DOCKED: USER  
DOCKED: REMARK  4 active torsions:
DOCKED: REMARK  status: ('A' for Active; 'I' for Inactive)
DOCKED: REMARK    1  A    between atoms: C00Q_4  and  N008_28 
DOCKED: REMARK    2  A    between atoms: C00Q_5  and  N008_29 
DOCKED: REMARK    3  A    between atoms: C00R_6  and  N2_24 
DOCKED: REMARK    4  A    between atoms: C00R_7  and  N2_25 
DOCKED: USER                              x       y       z     vdW  Elec       q    Type
DOCKED: USER                           _______ _______ _______ _____ _____    ______ ____
DOCKED: ROOT
DOCKED: ATOM      1 Pd02 UNK     1      21.714  39.987  19.310 -0.02 -0.00    +0.000 Pd
DOCKED: ATOM      2  C00 UNK     1      20.109  37.883  20.648 -0.09 -0.12    +0.162 C 
DOCKED: ATOM      3  C00 UNK     1      23.317  42.092  17.973 -0.16 -0.19    +0.162 C 
DOCKED: ATOM      4  C00 UNK     1      21.196  35.764  21.358 -0.17 -0.21    +0.285 C 
DOCKED: ATOM      5  C00 UNK     1      22.232  44.210  17.262 -0.28 -0.40    +0.285 C 
DOCKED: ATOM      6  C00 UNK     1      21.315  37.116  20.920 -0.12 -0.14    +0.192 C 
DOCKED: ATOM      7  C00 UNK     1      22.113  42.858  17.700 -0.30 -0.29    +0.192 C 
DOCKED: ATOM      8  N00 UNK     1      20.152  39.061  20.166 -0.03 +0.24    -0.281 N 
DOCKED: ATOM      9  N00 UNK     1      23.275  40.913  18.454 -0.04 +0.31    -0.281 N 
DOCKED: ATOM     10  N00 UNK     1      22.528  37.574  20.874 -0.11 +0.11    -0.140 NA
DOCKED: ATOM     11  N00 UNK     1      20.899  42.401  17.746 -4.20 +0.24    -0.140 NA
DOCKED: ATOM     12  N00 UNK     1      18.904  37.304  21.005 -0.05 +0.19    -0.286 N 
DOCKED: ATOM     13  N00 UNK     1      24.523  42.670  17.615 -0.05 +0.29    -0.286 N 
DOCKED: ATOM     14  N00 UNK     1      19.922  35.243  21.486 -0.11 +0.19    -0.268 N 
DOCKED: ATOM     15  N00 UNK     1      23.505  44.731  17.134 -0.14 +0.29    -0.268 N 
DOCKED: ATOM     16  O00 UNK     1      17.674  35.480  21.567 -0.09 +0.14    -0.246 OA
DOCKED: ATOM     17  O00 UNK     1      25.753  44.494  17.053 -0.05 +0.20    -0.246 OA
DOCKED: ATOM     18  O00 UNK     1      22.160  35.014  21.606 -0.26 +0.22    -0.265 OA
DOCKED: ATOM     19  O00 UNK     1      21.266  44.960  17.014 +0.13 +0.42    -0.265 OA
DOCKED: ATOM     20  N00 UNK     1      22.875  38.740  20.403 -0.07 +0.13    -0.150 N 
DOCKED: ATOM     21  N00 UNK     1      20.551  41.235  18.216 -0.23 +0.22    -0.150 N 
DOCKED: ATOM     22  C01 UNK     1      18.759  35.989  21.384 -0.07 -0.21    +0.332 C 
DOCKED: ATOM     23  C01 UNK     1      24.669  43.985  17.236 -0.06 -0.32    +0.332 C 
DOCKED: ATOM     24  C01 UNK     1      19.781  33.815  21.905 -0.06 -0.11    +0.164 C 
DOCKED: ATOM     25  C01 UNK     1      23.646  46.159  16.715 -0.25 -0.15    +0.164 C 
DOCKED: ATOM     26  C01 UNK     1      17.663  38.076  20.936 -0.23 -0.09    +0.163 C 
DOCKED: ATOM     27  C01 UNK     1      25.764  41.898  17.684 -0.09 -0.14    +0.163 C 
DOCKED: ATOM     28 BH00 UNK     1      19.424  39.515  20.214 +0.08 -0.17    +0.188 HD
DOCKED: ATOM     29 BH00 UNK     1      24.004  40.459  18.406 +0.07 -0.19    +0.188 HD
DOCKED: ENDROOT
DOCKED: BRANCH  20  30
DOCKED: ATOM     30  C00 UNK     1      24.255  39.015  20.587 -0.07 -0.07    +0.079 A 
DOCKED: ATOM     31  C00 UNK     1      25.205  38.408  19.763 -0.15 -0.04    +0.036 A 
DOCKED: ATOM     32  C01 UNK     1      26.545  38.650  19.954 -0.16 -0.04    +0.031 A 
DOCKED: ATOM     33  C00 UNK     1      26.970  39.478  20.968 -0.09 -0.03    +0.025 A 
DOCKED: ATOM     34  C01 UNK     1      26.061  40.097  21.769 -0.05 -0.03    +0.031 A 
DOCKED: ATOM     35  C01 UNK     1      24.705  39.908  21.593 -0.04 -0.03    +0.036 A 
DOCKED: BRANCH  33  36
DOCKED: ATOM     36  N2  UNK     1      28.669  39.715  21.223 -0.03 +0.51    -0.399 N 
DOCKED: ATOM     37  H2a UNK     1      29.037  40.460  21.005 +0.02 -0.16    +0.156 HD
DOCKED: ATOM     38  H2b UNK     1      29.143  39.086  21.567 -0.07 -0.26    +0.156 HD
DOCKED: ENDBRANCH  33  36
DOCKED: ENDBRANCH  20  30
DOCKED: BRANCH  21  39
DOCKED: ATOM     39  C00 UNK     1      19.173  40.959  18.033 -0.35 -0.11    +0.079 A 
DOCKED: ATOM     40  C00 UNK     1      18.745  40.244  16.912 -0.32 -0.06    +0.036 A 
DOCKED: ATOM     41  C01 UNK     1      17.412  39.951  16.744 -0.36 -0.03    +0.031 A 
DOCKED: ATOM     42  C00 UNK     1      16.484  40.339  17.683 -0.35 -0.03    +0.025 A 
DOCKED: ATOM     43  C01 UNK     1      16.875  41.054  18.771 -0.39 -0.03    +0.031 A 
DOCKED: ATOM     44  C01 UNK     1      18.198  41.399  18.966 -0.40 -0.04    +0.036 A 
DOCKED: BRANCH  42  45
DOCKED: ATOM     45  N2  UNK     1      14.820  39.901  17.472 -0.25 +0.33    -0.399 N 
DOCKED: ATOM     46  H2a UNK     1      14.202  40.366  17.844 +0.11 -0.14    +0.156 HD
DOCKED: ATOM     47  H2b UNK     1      14.614  39.216  16.995 +0.12 -0.10    +0.156 HD
DOCKED: ENDBRANCH  42  45
DOCKED: ENDBRANCH  21  39
DOCKED: TORSDOF 4
DOCKED: TER
DOCKED: ENDMDL
________________________________________________________________________________


	BEGINNING GENETIC ALGORITHM DOCKING 14 of 25
Run: 14 Seed: 789315577 1680223196 [ Run 14 of 25 GA/GALS ]
Beginning LAMARCKIAN GENETIC ALGORITHM (LGA), with a maximum of 2500000 energy evaluations.

Final-Value: -10.485


	FINAL GENETIC ALGORITHM DOCKED STATE
	_______________________________________________


Detailed state:  trans 21.772 39.949 19.140 quatxyzw 0.574507 -0.329913 0.261449 -0.701957 center 2.061 11.319 -0.000 ntor 4 72.3326 -164.1698 -136.9753 172.7095
State:	 21.772  39.949  19.140   0.807 -0.463  0.367 -90.831     72.33 -164.17 -136.98  172.71

DOCKED: MODEL       14
DOCKED: USER    Run = 14
DOCKED: USER    DPF = final_struct_1LML_clean_h_TZ.dpf
DOCKED: USER  
DOCKED: USER    Estimated Free Energy of Binding    =   -8.17 kcal/mol  [=(1)+(2)+(3)-(4)]
DOCKED: USER    Estimated Inhibition Constant, Ki   =    1.02 uM (micromolar)  [Temperature = 298.15 K]
DOCKED: USER    
DOCKED: USER    (1) Final Intermolecular Energy     =   -9.37 kcal/mol
DOCKED: USER        vdW + Hbond + desolv Energy     =   -9.44 kcal/mol
DOCKED: USER        Electrostatic Energy            =   +0.07 kcal/mol
DOCKED: USER    (2) Final Total Internal Energy     =   -1.12 kcal/mol
DOCKED: USER    (3) Torsional Free Energy           =   +1.19 kcal/mol
DOCKED: USER    (4) Unbound System's Energy  [=(2)] =   -1.12 kcal/mol
DOCKED: USER    
DOCKED: USER    
DOCKED: USER    NEWDPF move final_struct.pdbqt
DOCKED: USER    NEWDPF about 2.061000 11.319000 -0.000000
DOCKED: USER    NEWDPF tran0 21.771682 39.949161 19.139563
DOCKED: USER    NEWDPF quaternion0 0.574507 -0.329913 0.261449 -0.701957
DOCKED: USER    NEWDPF axisangle0 0.806643 -0.463218 0.367091 -90.831489
DOCKED: USER    NEWDPF quat0 0.806643 -0.463218 0.367091 -90.831489
DOCKED: USER    NEWDPF dihe0 72.33 -164.17 -136.98 172.71 
DOCKED: USER  keepresnum = 1 
DOCKED: USER  
DOCKED: REMARK  4 active torsions:
DOCKED: REMARK  status: ('A' for Active; 'I' for Inactive)
DOCKED: REMARK    1  A    between atoms: C00Q_4  and  N008_28 
DOCKED: REMARK    2  A    between atoms: C00Q_5  and  N008_29 
DOCKED: REMARK    3  A    between atoms: C00R_6  and  N2_24 
DOCKED: REMARK    4  A    between atoms: C00R_7  and  N2_25 
DOCKED: USER                              x       y       z     vdW  Elec       q    Type
DOCKED: USER                           _______ _______ _______ _____ _____    ______ ____
DOCKED: ROOT
DOCKED: ATOM      1 Pd02 UNK     1      21.772  39.949  19.140 -0.03 -0.00    +0.000 Pd
DOCKED: ATOM      2  C00 UNK     1      20.246  37.980  20.748 -0.08 -0.12    +0.162 C 
DOCKED: ATOM      3  C00 UNK     1      23.296  41.919  17.532 -0.19 -0.22    +0.162 C 
DOCKED: ATOM      4  C00 UNK     1      21.276  35.794  21.327 -0.17 -0.21    +0.285 C 
DOCKED: ATOM      5  C00 UNK     1      22.268  44.104  16.952 -0.27 -0.42    +0.285 C 
DOCKED: ATOM      6  C00 UNK     1      21.422  37.130  20.849 -0.13 -0.14    +0.192 C 
DOCKED: ATOM      7  C00 UNK     1      22.122  42.768  17.430 -0.30 -0.31    +0.192 C 
DOCKED: ATOM      8  N00 UNK     1      20.298  39.148  20.242 -0.02 +0.24    -0.281 N 
DOCKED: ATOM      9  N00 UNK     1      23.245  40.751  18.038 -0.07 +0.33    -0.281 N 
DOCKED: ATOM     10  N00 UNK     1      22.643  37.497  20.609 -0.13 +0.11    -0.140 NA
DOCKED: ATOM     11  N00 UNK     1      20.900  42.402  17.670 -4.18 +0.25    -0.140 NA
DOCKED: ATOM     12  N00 UNK     1      19.072  37.495  21.297 -0.04 +0.19    -0.286 N 
DOCKED: ATOM     13  N00 UNK     1      24.471  42.404  16.982 -0.08 +0.33    -0.286 N 
DOCKED: ATOM     14  N00 UNK     1      20.003  35.369  21.658 -0.10 +0.19    -0.268 N 
DOCKED: ATOM     15  N00 UNK     1      23.541  44.529  16.621 -0.15 +0.31    -0.268 N 
DOCKED: ATOM     16  O00 UNK     1      17.816  35.770  22.076 -0.07 +0.14    -0.246 OA
DOCKED: ATOM     17  O00 UNK     1      25.727  44.128  16.203 -0.09 +0.23    -0.246 OA
DOCKED: ATOM     18  O00 UNK     1      22.211  34.978  21.440 -0.27 +0.22    -0.265 OA
DOCKED: ATOM     19  O00 UNK     1      21.332  44.921  16.840 +0.70 +0.42    -0.265 OA
DOCKED: ATOM     20  N00 UNK     1      22.996  38.630  20.068 -0.09 +0.13    -0.150 N 
DOCKED: ATOM     21  N00 UNK     1      20.546  41.269  18.211 -0.23 +0.22    -0.150 N 
DOCKED: ATOM     22  C01 UNK     1      18.894  36.197  21.720 -0.05 -0.21    +0.332 C 
DOCKED: ATOM     23  C01 UNK     1      24.650  43.701  16.560 -0.09 -0.36    +0.332 C 
DOCKED: ATOM     24  C01 UNK     1      19.827  33.959  22.122 -0.11 -0.11    +0.164 C 
DOCKED: ATOM     25  C01 UNK     1      23.716  45.940  16.157 -0.24 -0.16    +0.164 C 
DOCKED: ATOM     26  C01 UNK     1      17.894  38.354  21.402 -0.22 -0.10    +0.163 C 
DOCKED: ATOM     27  C01 UNK     1      25.650  41.544  16.877 -0.17 -0.15    +0.163 C 
DOCKED: ATOM     28 BH00 UNK     1      19.620  39.654  20.391 +0.08 -0.17    +0.188 HD
DOCKED: ATOM     29 BH00 UNK     1      23.923  40.244  17.888 +0.08 -0.20    +0.188 HD
DOCKED: ENDROOT
DOCKED: BRANCH  20  30
DOCKED: ATOM     30  C00 UNK     1      24.403  38.805  20.033 -0.10 -0.07    +0.079 A 
DOCKED: ATOM     31  C00 UNK     1      25.132  38.392  18.916 -0.18 -0.03    +0.036 A 
DOCKED: ATOM     32  C01 UNK     1      26.499  38.534  18.889 -0.21 -0.03    +0.031 A 
DOCKED: ATOM     33  C00 UNK     1      27.171  39.068  19.966 -0.13 -0.03    +0.025 A 
DOCKED: ATOM     34  C01 UNK     1      26.479  39.498  21.055 -0.08 -0.04    +0.031 A 
DOCKED: ATOM     35  C01 UNK     1      25.102  39.403  21.113 -0.07 -0.03    +0.036 A 
DOCKED: BRANCH  33  36
DOCKED: ATOM     36  N2  UNK     1      28.900  39.178  19.926 -0.03 +0.50    -0.399 N 
DOCKED: ATOM     37  H2a UNK     1      29.283  39.758  19.421 +0.04 -0.16    +0.156 HD
DOCKED: ATOM     38  H2b UNK     1      29.375  38.652  20.413 +0.00 -0.25    +0.156 HD
DOCKED: ENDBRANCH  33  36
DOCKED: ENDBRANCH  20  30
DOCKED: BRANCH  21  39
DOCKED: ATOM     39  C00 UNK     1      19.140  41.093  18.246 -0.36 -0.11    +0.079 A 
DOCKED: ATOM     40  C00 UNK     1      18.330  42.049  18.863 -0.49 -0.05    +0.036 A 
DOCKED: ATOM     41  C01 UNK     1      16.964  41.896  18.875 +0.27 -0.04    +0.031 A 
DOCKED: ATOM     42  C00 UNK     1      16.373  40.813  18.266 -0.26 -0.03    +0.025 A 
DOCKED: ATOM     43  C01 UNK     1      17.143  39.859  17.677 -0.48 -0.03    +0.031 A 
DOCKED: ATOM     44  C01 UNK     1      18.521  39.954  17.668 -0.37 -0.04    +0.036 A 
DOCKED: BRANCH  42  45
DOCKED: ATOM     45  N2  UNK     1      14.645  40.681  18.246 -0.16 +0.42    -0.399 N 
DOCKED: ATOM     46  H2a UNK     1      14.272  39.931  18.057 +0.12 -0.13    +0.156 HD
DOCKED: ATOM     47  H2b UNK     1      14.160  41.368  18.425 -0.21 -0.20    +0.156 HD
DOCKED: ENDBRANCH  42  45
DOCKED: ENDBRANCH  21  39
DOCKED: TORSDOF 4
DOCKED: TER
DOCKED: ENDMDL
________________________________________________________________________________


	BEGINNING GENETIC ALGORITHM DOCKING 15 of 25
Run: 15 Seed: 921756058 188486514 [ Run 15 of 25 GA/GALS ]
Beginning LAMARCKIAN GENETIC ALGORITHM (LGA), with a maximum of 2500000 energy evaluations.

Final-Value: -10.119


	FINAL GENETIC ALGORITHM DOCKED STATE
	_______________________________________________


Detailed state:  trans 21.600 39.843 19.186 quatxyzw -0.325882 -0.853611 -0.405009 0.033423 center 2.061 11.319 -0.000 ntor 4 -97.8565 -132.5287 42.3847 176.9242
State:	 21.600  39.843  19.186  -0.326 -0.854 -0.405 176.169    -97.86 -132.53   42.38  176.92

DOCKED: MODEL       15
DOCKED: USER    Run = 15
DOCKED: USER    DPF = final_struct_1LML_clean_h_TZ.dpf
DOCKED: USER  
DOCKED: USER    Estimated Free Energy of Binding    =   -7.81 kcal/mol  [=(1)+(2)+(3)-(4)]
DOCKED: USER    Estimated Inhibition Constant, Ki   =    1.87 uM (micromolar)  [Temperature = 298.15 K]
DOCKED: USER    
DOCKED: USER    (1) Final Intermolecular Energy     =   -9.01 kcal/mol
DOCKED: USER        vdW + Hbond + desolv Energy     =   -9.11 kcal/mol
DOCKED: USER        Electrostatic Energy            =   +0.10 kcal/mol
DOCKED: USER    (2) Final Total Internal Energy     =   -1.11 kcal/mol
DOCKED: USER    (3) Torsional Free Energy           =   +1.19 kcal/mol
DOCKED: USER    (4) Unbound System's Energy  [=(2)] =   -1.11 kcal/mol
DOCKED: USER    
DOCKED: USER    
DOCKED: USER    NEWDPF move final_struct.pdbqt
DOCKED: USER    NEWDPF about 2.061000 11.319000 -0.000000
DOCKED: USER    NEWDPF tran0 21.600439 39.842577 19.185691
DOCKED: USER    NEWDPF quaternion0 -0.325882 -0.853611 -0.405009 0.033423
DOCKED: USER    NEWDPF axisangle0 -0.326064 -0.854088 -0.405236 176.169266
DOCKED: USER    NEWDPF quat0 -0.326064 -0.854088 -0.405236 176.169266
DOCKED: USER    NEWDPF dihe0 -97.86 -132.53 42.38 176.92 
DOCKED: USER  keepresnum = 1 
DOCKED: USER  
DOCKED: REMARK  4 active torsions:
DOCKED: REMARK  status: ('A' for Active; 'I' for Inactive)
DOCKED: REMARK    1  A    between atoms: C00Q_4  and  N008_28 
DOCKED: REMARK    2  A    between atoms: C00Q_5  and  N008_29 
DOCKED: REMARK    3  A    between atoms: C00R_6  and  N2_24 
DOCKED: REMARK    4  A    between atoms: C00R_7  and  N2_25 
DOCKED: USER                              x       y       z     vdW  Elec       q    Type
DOCKED: USER                           _______ _______ _______ _____ _____    ______ ____
DOCKED: ROOT
DOCKED: ATOM      1 Pd02 UNK     1      21.600  39.843  19.186 -0.03 -0.00    +0.000 Pd
DOCKED: ATOM      2  C00 UNK     1      23.083  42.395  18.906 -0.15 -0.17    +0.162 C 
DOCKED: ATOM      3  C00 UNK     1      20.118  37.290  19.467 -0.18 -0.12    +0.162 C 
DOCKED: ATOM      4  C00 UNK     1      22.402  44.036  17.169 -0.28 -0.40    +0.285 C 
DOCKED: ATOM      5  C00 UNK     1      20.799  35.649  21.202 -0.16 -0.21    +0.285 C 
DOCKED: ATOM      6  C00 UNK     1      22.106  42.873  17.940 -0.29 -0.27    +0.192 C 
DOCKED: ATOM      7  C00 UNK     1      21.095  36.812  20.431 -0.18 -0.14    +0.192 C 
DOCKED: ATOM      8  N00 UNK     1      22.917  41.312  19.556 -0.03 +0.27    -0.281 N 
DOCKED: ATOM      9  N00 UNK     1      20.284  38.373  18.816 -0.06 +0.25    -0.281 N 
DOCKED: ATOM     10  N00 UNK     1      20.922  42.376  17.752 -3.76 +0.24    -0.140 NA
DOCKED: ATOM     11  N00 UNK     1      22.278  37.309  20.619 -0.14 +0.11    -0.140 NA
DOCKED: ATOM     12  N00 UNK     1      24.175  43.209  19.148 -0.07 +0.25    -0.286 N 
DOCKED: ATOM     13  N00 UNK     1      19.026  36.476  19.223 -0.13 +0.20    -0.286 N 
DOCKED: ATOM     14  N00 UNK     1      23.626  44.645  17.373 -0.13 +0.29    -0.268 N 
DOCKED: ATOM     15  N00 UNK     1      19.575  35.040  20.998 -0.11 +0.20    -0.268 N 
DOCKED: ATOM     16  O00 UNK     1      25.539  44.923  18.547 -0.11 +0.18    -0.246 OA
DOCKED: ATOM     17  O00 UNK     1      17.662  34.762  19.824 -0.20 +0.16    -0.246 OA
DOCKED: ATOM     18  O00 UNK     1      21.645  44.523  16.306 +0.71 +0.44    -0.265 OA
DOCKED: ATOM     19  O00 UNK     1      21.556  35.162  22.066 -0.19 +0.20    -0.265 OA
DOCKED: ATOM     20  N00 UNK     1      20.484  41.262  18.269 -0.23 +0.22    -0.150 N 
DOCKED: ATOM     21  N00 UNK     1      22.718  38.423  20.103 -0.09 +0.13    -0.150 N 
DOCKED: ATOM     22  C01 UNK     1      24.507  44.307  18.388 -0.06 -0.29    +0.332 C 
DOCKED: ATOM     23  C01 UNK     1      18.694  35.378  19.983 -0.15 -0.23    +0.332 C 
DOCKED: ATOM     24  C01 UNK     1      23.967  45.841  16.544 -0.21 -0.15    +0.164 C 
DOCKED: ATOM     25  C01 UNK     1      19.233  33.844  21.828 -0.11 -0.11    +0.164 C 
DOCKED: ATOM     26  C01 UNK     1      25.107  42.894  20.231 -0.06 -0.11    +0.163 C 
DOCKED: ATOM     27  C01 UNK     1      18.094  36.791  18.140 -0.31 -0.11    +0.163 C 
DOCKED: ATOM     28 BH00 UNK     1      23.430  41.197  20.235 +0.05 -0.16    +0.188 HD
DOCKED: ATOM     29 BH00 UNK     1      19.770  38.488  18.137 +0.12 -0.18    +0.188 HD
DOCKED: ENDROOT
DOCKED: BRANCH  20  30
DOCKED: ATOM     30  C00 UNK     1      19.114  41.028  17.983 -0.36 -0.11    +0.079 A 
DOCKED: ATOM     31  C00 UNK     1      18.127  41.520  18.840 -0.46 -0.04    +0.036 A 
DOCKED: ATOM     32  C01 UNK     1      16.800  41.272  18.582 -0.20 -0.04    +0.031 A 
DOCKED: ATOM     33  C00 UNK     1      16.424  40.524  17.490 +0.05 -0.03    +0.025 A 
DOCKED: ATOM     34  C01 UNK     1      17.367  40.053  16.631 -0.24 -0.03    +0.031 A 
DOCKED: ATOM     35  C01 UNK     1      18.710  40.304  16.832 -0.27 -0.06    +0.036 A 
DOCKED: BRANCH  33  36
DOCKED: ATOM     36  N2  UNK     1      14.746  40.177  17.227 -0.25 +0.35    -0.399 N 
DOCKED: ATOM     37  H2a UNK     1      14.417  39.424  17.478 +0.12 -0.11    +0.156 HD
DOCKED: ATOM     38  H2b UNK     1      14.242  40.760  16.845 +0.09 -0.15    +0.156 HD
DOCKED: ENDBRANCH  33  36
DOCKED: ENDBRANCH  20  30
DOCKED: BRANCH  21  39
DOCKED: ATOM     39  C00 UNK     1      24.086  38.657  20.388 -0.10 -0.07    +0.079 A 
DOCKED: ATOM     40  C00 UNK     1      24.549  38.593  21.705 -0.08 -0.03    +0.036 A 
DOCKED: ATOM     41  C01 UNK     1      25.880  38.792  21.983 -0.09 -0.04    +0.031 A 
DOCKED: ATOM     42  C00 UNK     1      26.779  39.040  20.971 -0.10 -0.03    +0.025 A 
DOCKED: ATOM     43  C01 UNK     1      26.349  39.129  19.684 -0.13 -0.03    +0.031 A 
DOCKED: ATOM     44  C01 UNK     1      25.016  38.967  19.361 -0.14 -0.03    +0.036 A 
DOCKED: BRANCH  42  45
DOCKED: ATOM     45  N2  UNK     1      28.460  39.226  21.349 -0.01 +0.64    -0.399 N 
DOCKED: ATOM     46  H2a UNK     1      28.905  39.884  21.021 +0.02 -0.18    +0.156 HD
DOCKED: ATOM     47  H2b UNK     1      28.850  38.659  21.864 -0.39 -0.35    +0.156 HD
DOCKED: ENDBRANCH  42  45
DOCKED: ENDBRANCH  21  39
DOCKED: TORSDOF 4
DOCKED: TER
DOCKED: ENDMDL
________________________________________________________________________________


	BEGINNING GENETIC ALGORITHM DOCKING 16 of 25
Run: 16 Seed: 1762258297 2030622292 [ Run 16 of 25 GA/GALS ]
Beginning LAMARCKIAN GENETIC ALGORITHM (LGA), with a maximum of 2500000 energy evaluations.

Final-Value: -11.003


	FINAL GENETIC ALGORITHM DOCKED STATE
	_______________________________________________


Detailed state:  trans 21.726 39.879 19.088 quatxyzw 0.586002 -0.337977 0.248096 -0.693413 center 2.061 11.319 -0.000 ntor 4 -110.2503 -149.3773 -133.6449 175.2028
State:	 21.726  39.879  19.088   0.813 -0.469  0.344 -92.198   -110.25 -149.38 -133.64  175.20

DOCKED: MODEL       16
DOCKED: USER    Run = 16
DOCKED: USER    DPF = final_struct_1LML_clean_h_TZ.dpf
DOCKED: USER  
DOCKED: USER    Estimated Free Energy of Binding    =   -8.72 kcal/mol  [=(1)+(2)+(3)-(4)]
DOCKED: USER    Estimated Inhibition Constant, Ki   =  402.27 nM (nanomolar)  [Temperature = 298.15 K]
DOCKED: USER    
DOCKED: USER    (1) Final Intermolecular Energy     =   -9.92 kcal/mol
DOCKED: USER        vdW + Hbond + desolv Energy     =   -9.98 kcal/mol
DOCKED: USER        Electrostatic Energy            =   +0.07 kcal/mol
DOCKED: USER    (2) Final Total Internal Energy     =   -1.08 kcal/mol
DOCKED: USER    (3) Torsional Free Energy           =   +1.19 kcal/mol
DOCKED: USER    (4) Unbound System's Energy  [=(2)] =   -1.08 kcal/mol
DOCKED: USER    
DOCKED: USER    
DOCKED: USER    NEWDPF move final_struct.pdbqt
DOCKED: USER    NEWDPF about 2.061000 11.319000 -0.000000
DOCKED: USER    NEWDPF tran0 21.725853 39.878857 19.088322
DOCKED: USER    NEWDPF quaternion0 0.586002 -0.337977 0.248096 -0.693413
DOCKED: USER    NEWDPF axisangle0 0.813281 -0.469061 0.344320 -92.198213
DOCKED: USER    NEWDPF quat0 0.813281 -0.469061 0.344320 -92.198213
DOCKED: USER    NEWDPF dihe0 -110.25 -149.38 -133.64 175.20 
DOCKED: USER  keepresnum = 1 
DOCKED: USER  
DOCKED: REMARK  4 active torsions:
DOCKED: REMARK  status: ('A' for Active; 'I' for Inactive)
DOCKED: REMARK    1  A    between atoms: C00Q_4  and  N008_28 
DOCKED: REMARK    2  A    between atoms: C00Q_5  and  N008_29 
DOCKED: REMARK    3  A    between atoms: C00R_6  and  N2_24 
DOCKED: REMARK    4  A    between atoms: C00R_7  and  N2_25 
DOCKED: USER                              x       y       z     vdW  Elec       q    Type
DOCKED: USER                           _______ _______ _______ _____ _____    ______ ____
DOCKED: ROOT
DOCKED: ATOM      1 Pd02 UNK     1      21.726  39.879  19.088 -0.03 -0.00    +0.000 Pd
DOCKED: ATOM      2  C00 UNK     1      20.175  37.873  20.626 -0.09 -0.12    +0.162 C 
DOCKED: ATOM      3  C00 UNK     1      23.275  41.885  17.551 -0.19 -0.22    +0.162 C 
DOCKED: ATOM      4  C00 UNK     1      21.172  35.650  21.115 -0.18 -0.22    +0.285 C 
DOCKED: ATOM      5  C00 UNK     1      22.280  44.108  17.062 -0.28 -0.41    +0.285 C 
DOCKED: ATOM      6  C00 UNK     1      21.338  37.001  20.688 -0.15 -0.14    +0.192 C 
DOCKED: ATOM      7  C00 UNK     1      22.114  42.757  17.489 -0.30 -0.31    +0.192 C 
DOCKED: ATOM      8  N00 UNK     1      20.244  39.059  20.166 -0.02 +0.24    -0.281 N 
DOCKED: ATOM      9  N00 UNK     1      23.207  40.699  18.012 -0.08 +0.33    -0.281 N 
DOCKED: ATOM     10  N00 UNK     1      22.564  37.357  20.457 -0.14 +0.11    -0.140 NA
DOCKED: ATOM     11  N00 UNK     1      20.888  42.400  17.720 -4.19 +0.24    -0.140 NA
DOCKED: ATOM     12  N00 UNK     1      18.996  37.385  21.161 -0.04 +0.19    -0.286 N 
DOCKED: ATOM     13  N00 UNK     1      24.455  42.372  17.016 -0.08 +0.33    -0.286 N 
DOCKED: ATOM     14  N00 UNK     1      19.894  35.233  21.435 -0.11 +0.19    -0.268 N 
DOCKED: ATOM     15  N00 UNK     1      23.558  44.525  16.742 -0.14 +0.31    -0.268 N 
DOCKED: ATOM     16  O00 UNK     1      17.716  35.652  21.878 -0.08 +0.14    -0.246 OA
DOCKED: ATOM     17  O00 UNK     1      25.736  44.106  16.298 -0.08 +0.22    -0.246 OA
DOCKED: ATOM     18  O00 UNK     1      22.095  34.815  21.192 -0.18 +0.22    -0.265 OA
DOCKED: ATOM     19  O00 UNK     1      21.356  44.943  16.986 +0.07 +0.41    -0.265 OA
DOCKED: ATOM     20  N00 UNK     1      22.933  38.505  19.959 -0.10 +0.13    -0.150 N 
DOCKED: ATOM     21  N00 UNK     1      20.518  41.253  18.218 -0.23 +0.22    -0.150 N 
DOCKED: ATOM     22  C01 UNK     1      18.798  36.075  21.534 -0.06 -0.21    +0.332 C 
DOCKED: ATOM     23  C01 UNK     1      24.653  43.682  16.643 -0.08 -0.35    +0.332 C 
DOCKED: ATOM     24  C01 UNK     1      19.698  33.808  21.845 -0.03 -0.11    +0.164 C 
DOCKED: ATOM     25  C01 UNK     1      23.754  45.949  16.332 -0.24 -0.16    +0.164 C 
DOCKED: ATOM     26  C01 UNK     1      17.832  38.259  21.305 -0.22 -0.10    +0.163 C 
DOCKED: ATOM     27  C01 UNK     1      25.620  41.499  16.872 -0.17 -0.15    +0.163 C 
DOCKED: ATOM     28 BH00 UNK     1      19.575  39.569  20.337 +0.08 -0.17    +0.188 HD
DOCKED: ATOM     29 BH00 UNK     1      23.877  40.188  17.839 +0.08 -0.21    +0.188 HD
DOCKED: ENDROOT
DOCKED: BRANCH  20  30
DOCKED: ATOM     30  C00 UNK     1      24.342  38.659  19.924 -0.12 -0.07    +0.079 A 
DOCKED: ATOM     31  C00 UNK     1      25.052  38.343  18.764 -0.18 -0.03    +0.036 A 
DOCKED: ATOM     32  C01 UNK     1      26.421  38.465  18.735 -0.23 -0.03    +0.031 A 
DOCKED: ATOM     33  C00 UNK     1      27.113  38.881  19.849 -0.15 -0.03    +0.025 A 
DOCKED: ATOM     34  C01 UNK     1      26.440  39.215  20.983 -0.10 -0.04    +0.031 A 
DOCKED: ATOM     35  C01 UNK     1      25.063  39.138  21.048 -0.08 -0.04    +0.036 A 
DOCKED: BRANCH  33  36
DOCKED: ATOM     36  N2  UNK     1      28.844  38.966  19.800 -0.04 +0.51    -0.399 N 
DOCKED: ATOM     37  H2a UNK     1      29.316  38.409  20.253 -0.01 -0.26    +0.156 HD
DOCKED: ATOM     38  H2b UNK     1      29.231  39.565  19.320 +0.04 -0.16    +0.156 HD
DOCKED: ENDBRANCH  33  36
DOCKED: ENDBRANCH  20  30
DOCKED: BRANCH  21  39
DOCKED: ATOM     39  C00 UNK     1      19.110  41.098  18.252 -0.37 -0.11    +0.079 A 
DOCKED: ATOM     40  C00 UNK     1      18.313  42.069  18.865 -0.49 -0.05    +0.036 A 
DOCKED: ATOM     41  C01 UNK     1      16.945  41.937  18.877 +0.36 -0.04    +0.031 A 
DOCKED: ATOM     42  C00 UNK     1      16.338  40.860  18.271 -0.23 -0.03    +0.025 A 
DOCKED: ATOM     43  C01 UNK     1      17.094  39.892  17.687 -0.48 -0.03    +0.031 A 
DOCKED: ATOM     44  C01 UNK     1      18.474  39.967  17.679 -0.38 -0.04    +0.036 A 
DOCKED: BRANCH  42  45
DOCKED: ATOM     45  N2  UNK     1      14.609  40.754  18.251 -0.16 +0.43    -0.399 N 
DOCKED: ATOM     46  H2a UNK     1      14.224  39.986  18.254 +0.12 -0.13    +0.156 HD
DOCKED: ATOM     47  H2b UNK     1      14.135  41.471  18.237 -0.24 -0.21    +0.156 HD
DOCKED: ENDBRANCH  42  45
DOCKED: ENDBRANCH  21  39
DOCKED: TORSDOF 4
DOCKED: TER
DOCKED: ENDMDL
________________________________________________________________________________


	BEGINNING GENETIC ALGORITHM DOCKING 17 of 25
Run: 17 Seed: 816928368 2045692718 [ Run 17 of 25 GA/GALS ]
Beginning LAMARCKIAN GENETIC ALGORITHM (LGA), with a maximum of 2500000 energy evaluations.

Final-Value: -11.172


	FINAL GENETIC ALGORITHM DOCKED STATE
	_______________________________________________


Detailed state:  trans 21.668 39.882 19.157 quatxyzw 0.577479 -0.352387 0.258179 -0.689699 center 2.061 11.319 -0.000 ntor 4 69.5916 -150.6028 -136.0711 168.1012
State:	 21.668  39.882  19.157   0.798 -0.487  0.357 -92.787     69.59 -150.60 -136.07  168.10

DOCKED: MODEL       17
DOCKED: USER    Run = 17
DOCKED: USER    DPF = final_struct_1LML_clean_h_TZ.dpf
DOCKED: USER  
DOCKED: USER    Estimated Free Energy of Binding    =   -8.84 kcal/mol  [=(1)+(2)+(3)-(4)]
DOCKED: USER    Estimated Inhibition Constant, Ki   =  331.33 nM (nanomolar)  [Temperature = 298.15 K]
DOCKED: USER    
DOCKED: USER    (1) Final Intermolecular Energy     =  -10.03 kcal/mol
DOCKED: USER        vdW + Hbond + desolv Energy     =  -10.09 kcal/mol
DOCKED: USER        Electrostatic Energy            =   +0.06 kcal/mol
DOCKED: USER    (2) Final Total Internal Energy     =   -1.14 kcal/mol
DOCKED: USER    (3) Torsional Free Energy           =   +1.19 kcal/mol
DOCKED: USER    (4) Unbound System's Energy  [=(2)] =   -1.14 kcal/mol
DOCKED: USER    
DOCKED: USER    
DOCKED: USER    NEWDPF move final_struct.pdbqt
DOCKED: USER    NEWDPF about 2.061000 11.319000 -0.000000
DOCKED: USER    NEWDPF tran0 21.668402 39.882436 19.156545
DOCKED: USER    NEWDPF quaternion0 0.577479 -0.352387 0.258179 -0.689699
DOCKED: USER    NEWDPF axisangle0 0.797517 -0.486658 0.356553 -92.787401
DOCKED: USER    NEWDPF quat0 0.797517 -0.486658 0.356553 -92.787401
DOCKED: USER    NEWDPF dihe0 69.59 -150.60 -136.07 168.10 
DOCKED: USER  keepresnum = 1 
DOCKED: USER  
DOCKED: REMARK  4 active torsions:
DOCKED: REMARK  status: ('A' for Active; 'I' for Inactive)
DOCKED: REMARK    1  A    between atoms: C00Q_4  and  N008_28 
DOCKED: REMARK    2  A    between atoms: C00Q_5  and  N008_29 
DOCKED: REMARK    3  A    between atoms: C00R_6  and  N2_24 
DOCKED: REMARK    4  A    between atoms: C00R_7  and  N2_25 
DOCKED: USER                              x       y       z     vdW  Elec       q    Type
DOCKED: USER                           _______ _______ _______ _____ _____    ______ ____
DOCKED: ROOT
DOCKED: ATOM      1 Pd02 UNK     1      21.668  39.882  19.157 -0.03 -0.00    +0.000 Pd
DOCKED: ATOM      2  C00 UNK     1      20.046  37.898  20.647 -0.09 -0.12    +0.162 C 
DOCKED: ATOM      3  C00 UNK     1      23.290  41.867  17.666 -0.18 -0.21    +0.162 C 
DOCKED: ATOM      4  C00 UNK     1      21.008  35.672  21.190 -0.17 -0.21    +0.285 C 
DOCKED: ATOM      5  C00 UNK     1      22.329  44.092  17.123 -0.28 -0.40    +0.285 C 
DOCKED: ATOM      6  C00 UNK     1      21.199  37.019  20.760 -0.14 -0.14    +0.192 C 
DOCKED: ATOM      7  C00 UNK     1      22.138  42.746  17.553 -0.29 -0.30    +0.192 C 
DOCKED: ATOM      8  N00 UNK     1      20.140  39.080  20.182 -0.03 +0.24    -0.281 N 
DOCKED: ATOM      9  N00 UNK     1      23.196  40.685  18.132 -0.07 +0.33    -0.281 N 
DOCKED: ATOM     10  N00 UNK     1      22.436  37.365  20.574 -0.14 +0.11    -0.140 NA
DOCKED: ATOM     11  N00 UNK     1      20.901  42.400  17.739 -4.18 +0.24    -0.140 NA
DOCKED: ATOM     12  N00 UNK     1      18.844  37.422  21.140 -0.05 +0.18    -0.286 N 
DOCKED: ATOM     13  N00 UNK     1      24.493  42.343  17.173 -0.07 +0.32    -0.286 N 
DOCKED: ATOM     14  N00 UNK     1      19.715  35.266  21.463 -0.10 +0.19    -0.268 N 
DOCKED: ATOM     15  N00 UNK     1      23.622  44.499  16.850 -0.13 +0.30    -0.268 N 
DOCKED: ATOM     16  O00 UNK     1      17.525  35.703  21.820 -0.09 +0.14    -0.246 OA
DOCKED: ATOM     17  O00 UNK     1      25.812  44.062  16.494 -0.07 +0.22    -0.246 OA
DOCKED: ATOM     18  O00 UNK     1      21.921  34.832  21.308 -0.21 +0.22    -0.265 OA
DOCKED: ATOM     19  O00 UNK     1      21.415  44.933  17.006 -0.06 +0.41    -0.265 OA
DOCKED: ATOM     20  N00 UNK     1      22.831  38.507  20.082 -0.09 +0.13    -0.150 N 
DOCKED: ATOM     21  N00 UNK     1      20.504  41.258  18.231 -0.23 +0.22    -0.150 N 
DOCKED: ATOM     22  C01 UNK     1      18.623  36.117  21.514 -0.06 -0.20    +0.332 C 
DOCKED: ATOM     23  C01 UNK     1      24.714  43.648  16.799 -0.07 -0.35    +0.332 C 
DOCKED: ATOM     24  C01 UNK     1      19.493  33.846  21.875 -0.11 -0.11    +0.164 C 
DOCKED: ATOM     25  C01 UNK     1      23.844  45.919  16.438 -0.23 -0.16    +0.164 C 
DOCKED: ATOM     26  C01 UNK     1      17.681  38.305  21.233 -0.22 -0.09    +0.163 C 
DOCKED: ATOM     27  C01 UNK     1      25.656  41.460  17.080 -0.16 -0.15    +0.163 C 
DOCKED: ATOM     28 BH00 UNK     1      19.469  39.596  20.324 +0.08 -0.17    +0.188 HD
DOCKED: ATOM     29 BH00 UNK     1      23.868  40.168  17.989 +0.08 -0.20    +0.188 HD
DOCKED: ENDROOT
DOCKED: BRANCH  20  30
DOCKED: ATOM     30  C00 UNK     1      24.242  38.651  20.101 -0.11 -0.07    +0.079 A 
DOCKED: ATOM     31  C00 UNK     1      24.999  38.275  18.989 -0.16 -0.03    +0.036 A 
DOCKED: ATOM     32  C01 UNK     1      26.369  38.387  19.013 -0.22 -0.03    +0.031 A 
DOCKED: ATOM     33  C00 UNK     1      27.015  38.854  20.135 -0.13 -0.03    +0.025 A 
DOCKED: ATOM     34  C01 UNK     1      26.297  39.247  21.221 -0.09 -0.04    +0.031 A 
DOCKED: ATOM     35  C01 UNK     1      24.917  39.181  21.230 -0.07 -0.03    +0.036 A 
DOCKED: BRANCH  33  36
DOCKED: ATOM     36  N2  UNK     1      28.747  38.926  20.156 -0.04 +0.57    -0.399 N 
DOCKED: ATOM     37  H2a UNK     1      29.160  39.497  19.665 +0.03 -0.17    +0.156 HD
DOCKED: ATOM     38  H2b UNK     1      29.194  38.390  20.659 -0.09 -0.30    +0.156 HD
DOCKED: ENDBRANCH  33  36
DOCKED: ENDBRANCH  20  30
DOCKED: BRANCH  21  39
DOCKED: ATOM     39  C00 UNK     1      19.095  41.113  18.212 -0.37 -0.11    +0.079 A 
DOCKED: ATOM     40  C00 UNK     1      18.289  42.013  18.913 -0.46 -0.05    +0.036 A 
DOCKED: ATOM     41  C01 UNK     1      16.920  41.893  18.875 +0.33 -0.04    +0.031 A 
DOCKED: ATOM     42  C00 UNK     1      16.323  40.899  18.134 -0.06 -0.03    +0.025 A 
DOCKED: ATOM     43  C01 UNK     1      17.088  39.998  17.461 -0.47 -0.03    +0.031 A 
DOCKED: ATOM     44  C01 UNK     1      18.467  40.061  17.496 -0.39 -0.05    +0.036 A 
DOCKED: BRANCH  42  45
DOCKED: ATOM     45  N2  UNK     1      14.593  40.811  18.058 -0.25 +0.43    -0.399 N 
DOCKED: ATOM     46  H2a UNK     1      14.205  40.053  17.947 +0.11 -0.13    +0.156 HD
DOCKED: ATOM     47  H2b UNK     1      14.124  41.528  18.131 -0.27 -0.21    +0.156 HD
DOCKED: ENDBRANCH  42  45
DOCKED: ENDBRANCH  21  39
DOCKED: TORSDOF 4
DOCKED: TER
DOCKED: ENDMDL
________________________________________________________________________________


	BEGINNING GENETIC ALGORITHM DOCKING 18 of 25
Run: 18 Seed: 1856836652 1638604703 [ Run 18 of 25 GA/GALS ]
Beginning LAMARCKIAN GENETIC ALGORITHM (LGA), with a maximum of 2500000 energy evaluations.

Final-Value: -10.640


	FINAL GENETIC ALGORITHM DOCKED STATE
	_______________________________________________


Detailed state:  trans 21.675 39.983 19.318 quatxyzw 0.565909 -0.366117 0.325090 -0.663342 center 2.061 11.319 -0.000 ntor 4 105.9511 -152.1493 -161.0795 142.3266
State:	 21.675  39.983  19.318   0.756 -0.489  0.434 -96.890    105.95 -152.15 -161.08  142.33

DOCKED: MODEL       18
DOCKED: USER    Run = 18
DOCKED: USER    DPF = final_struct_1LML_clean_h_TZ.dpf
DOCKED: USER  
DOCKED: USER    Estimated Free Energy of Binding    =   -8.26 kcal/mol  [=(1)+(2)+(3)-(4)]
DOCKED: USER    Estimated Inhibition Constant, Ki   =  874.74 nM (nanomolar)  [Temperature = 298.15 K]
DOCKED: USER    
DOCKED: USER    (1) Final Intermolecular Energy     =   -9.46 kcal/mol
DOCKED: USER        vdW + Hbond + desolv Energy     =   -9.54 kcal/mol
DOCKED: USER        Electrostatic Energy            =   +0.08 kcal/mol
DOCKED: USER    (2) Final Total Internal Energy     =   -1.18 kcal/mol
DOCKED: USER    (3) Torsional Free Energy           =   +1.19 kcal/mol
DOCKED: USER    (4) Unbound System's Energy  [=(2)] =   -1.18 kcal/mol
DOCKED: USER    
DOCKED: USER    
DOCKED: USER    NEWDPF move final_struct.pdbqt
DOCKED: USER    NEWDPF about 2.061000 11.319000 -0.000000
DOCKED: USER    NEWDPF tran0 21.674993 39.983360 19.317745
DOCKED: USER    NEWDPF quaternion0 0.565909 -0.366117 0.325090 -0.663342
DOCKED: USER    NEWDPF axisangle0 0.756242 -0.489254 0.434428 -96.889534
DOCKED: USER    NEWDPF quat0 0.756242 -0.489254 0.434428 -96.889534
DOCKED: USER    NEWDPF dihe0 105.95 -152.15 -161.08 142.33 
DOCKED: USER  keepresnum = 1 
DOCKED: USER  
DOCKED: REMARK  4 active torsions:
DOCKED: REMARK  status: ('A' for Active; 'I' for Inactive)
DOCKED: REMARK    1  A    between atoms: C00Q_4  and  N008_28 
DOCKED: REMARK    2  A    between atoms: C00Q_5  and  N008_29 
DOCKED: REMARK    3  A    between atoms: C00R_6  and  N2_24 
DOCKED: REMARK    4  A    between atoms: C00R_7  and  N2_25 
DOCKED: USER                              x       y       z     vdW  Elec       q    Type
DOCKED: USER                           _______ _______ _______ _____ _____    ______ ____
DOCKED: ROOT
DOCKED: ATOM      1 Pd02 UNK     1      21.675  39.983  19.318 -0.02 -0.00    +0.000 Pd
DOCKED: ATOM      2  C00 UNK     1      20.048  37.902  20.664 -0.09 -0.12    +0.162 C 
DOCKED: ATOM      3  C00 UNK     1      23.301  42.065  17.972 -0.16 -0.20    +0.162 C 
DOCKED: ATOM      4  C00 UNK     1      21.112  35.776  21.385 -0.16 -0.21    +0.285 C 
DOCKED: ATOM      5  C00 UNK     1      22.238  44.191  17.251 -0.28 -0.40    +0.285 C 
DOCKED: ATOM      6  C00 UNK     1      21.245  37.124  20.940 -0.12 -0.14    +0.192 C 
DOCKED: ATOM      7  C00 UNK     1      22.105  42.842  17.695 -0.30 -0.29    +0.192 C 
DOCKED: ATOM      8  N00 UNK     1      20.103  39.078  20.177 -0.03 +0.24    -0.281 N 
DOCKED: ATOM      9  N00 UNK     1      23.246  40.889  18.459 -0.04 +0.31    -0.281 N 
DOCKED: ATOM     10  N00 UNK     1      22.463  37.568  20.893 -0.10 +0.11    -0.140 NA
DOCKED: ATOM     11  N00 UNK     1      20.887  42.398  17.743 -4.18 +0.24    -0.140 NA
DOCKED: ATOM     12  N00 UNK     1      18.837  37.338  21.024 -0.05 +0.19    -0.286 N 
DOCKED: ATOM     13  N00 UNK     1      24.513  42.629  17.612 -0.05 +0.29    -0.286 N 
DOCKED: ATOM     14  N00 UNK     1      19.832  35.268  21.514 -0.10 +0.19    -0.268 N 
DOCKED: ATOM     15  N00 UNK     1      23.518  44.698  17.121 -0.14 +0.30    -0.268 N 
DOCKED: ATOM     16  O00 UNK     1      17.587  35.529  21.593 -0.09 +0.14    -0.246 OA
DOCKED: ATOM     17  O00 UNK     1      25.763  44.438  17.042 -0.05 +0.20    -0.246 OA
DOCKED: ATOM     18  O00 UNK     1      22.068  35.017  21.637 -0.26 +0.21    -0.265 OA
DOCKED: ATOM     19  O00 UNK     1      21.281  44.950  16.999 +0.10 +0.42    -0.265 OA
DOCKED: ATOM     20  N00 UNK     1      22.823  38.729  20.417 -0.07 +0.13    -0.150 N 
DOCKED: ATOM     21  N00 UNK     1      20.526  41.238  18.218 -0.23 +0.22    -0.150 N 
DOCKED: ATOM     22  C01 UNK     1      18.677  36.026  21.408 -0.07 -0.21    +0.332 C 
DOCKED: ATOM     23  C01 UNK     1      24.673  43.940  17.227 -0.06 -0.32    +0.332 C 
DOCKED: ATOM     24  C01 UNK     1      19.676  33.844  21.940 -0.09 -0.11    +0.164 C 
DOCKED: ATOM     25  C01 UNK     1      23.674  46.123  16.696 -0.25 -0.15    +0.164 C 
DOCKED: ATOM     26  C01 UNK     1      17.604  38.122  20.950 -0.23 -0.09    +0.163 C 
DOCKED: ATOM     27  C01 UNK     1      25.746  41.844  17.685 -0.09 -0.14    +0.163 C 
DOCKED: ATOM     28 BH00 UNK     1      19.380  39.539  20.222 +0.08 -0.17    +0.188 HD
DOCKED: ATOM     29 BH00 UNK     1      23.970  40.427  18.413 +0.07 -0.19    +0.188 HD
DOCKED: ENDROOT
DOCKED: BRANCH  20  30
DOCKED: ATOM     30  C00 UNK     1      24.205  38.991  20.600 -0.07 -0.07    +0.079 A 
DOCKED: ATOM     31  C00 UNK     1      25.157  38.236  19.910 -0.13 -0.04    +0.036 A 
DOCKED: ATOM     32  C01 UNK     1      26.498  38.468  20.105 -0.16 -0.04    +0.031 A 
DOCKED: ATOM     33  C00 UNK     1      26.923  39.430  20.993 -0.09 -0.03    +0.025 A 
DOCKED: ATOM     34  C01 UNK     1      26.013  40.191  21.659 -0.05 -0.03    +0.031 A 
DOCKED: ATOM     35  C01 UNK     1      24.656  40.015  21.471 -0.04 -0.03    +0.036 A 
DOCKED: BRANCH  33  36
DOCKED: ATOM     36  N2  UNK     1      28.621  39.656  21.262 -0.03 +0.52    -0.399 N 
DOCKED: ATOM     37  H2a UNK     1      29.021  40.341  20.933 +0.02 -0.16    +0.156 HD
DOCKED: ATOM     38  H2b UNK     1      29.062  39.082  21.725 -0.09 -0.27    +0.156 HD
DOCKED: ENDBRANCH  33  36
DOCKED: ENDBRANCH  20  30
DOCKED: BRANCH  21  39
DOCKED: ATOM     39  C00 UNK     1      19.145  40.976  18.035 -0.36 -0.11    +0.079 A 
DOCKED: ATOM     40  C00 UNK     1      18.216  41.427  18.976 -0.39 -0.04    +0.036 A 
DOCKED: ATOM     41  C01 UNK     1      16.873  41.199  18.789 -0.32 -0.04    +0.031 A 
DOCKED: ATOM     42  C00 UNK     1      16.422  40.541  17.667 -0.09 -0.03    +0.025 A 
DOCKED: ATOM     43  C01 UNK     1      17.310  40.074  16.749 -0.27 -0.03    +0.031 A 
DOCKED: ATOM     44  C01 UNK     1      18.670  40.252  16.911 -0.34 -0.05    +0.036 A 
DOCKED: BRANCH  42  45
DOCKED: ATOM     45  N2  UNK     1      14.719  40.323  17.432 -0.25 +0.37    -0.399 N 
DOCKED: ATOM     46  H2a UNK     1      14.429  39.653  16.979 +0.13 -0.12    +0.156 HD
DOCKED: ATOM     47  H2b UNK     1      14.164  40.887  17.768 +0.07 -0.16    +0.156 HD
DOCKED: ENDBRANCH  42  45
DOCKED: ENDBRANCH  21  39
DOCKED: TORSDOF 4
DOCKED: TER
DOCKED: ENDMDL
________________________________________________________________________________


	BEGINNING GENETIC ALGORITHM DOCKING 19 of 25
Run: 19 Seed: 794687458 1867557601 [ Run 19 of 25 GA/GALS ]
Beginning LAMARCKIAN GENETIC ALGORITHM (LGA), with a maximum of 2500000 energy evaluations.

Final-Value: -10.815


	FINAL GENETIC ALGORITHM DOCKED STATE
	_______________________________________________


Detailed state:  trans 21.755 39.886 19.121 quatxyzw -0.584257 0.328525 -0.236709 0.703338 center 2.061 11.319 -0.000 ntor 4 62.2403 -159.6625 -135.0314 -176.1224
State:	 21.755  39.886  19.121  -0.822  0.462 -0.333 90.609     62.24 -159.66 -135.03 -176.12

DOCKED: MODEL       19
DOCKED: USER    Run = 19
DOCKED: USER    DPF = final_struct_1LML_clean_h_TZ.dpf
DOCKED: USER  
DOCKED: USER    Estimated Free Energy of Binding    =   -8.60 kcal/mol  [=(1)+(2)+(3)-(4)]
DOCKED: USER    Estimated Inhibition Constant, Ki   =  496.66 nM (nanomolar)  [Temperature = 298.15 K]
DOCKED: USER    
DOCKED: USER    (1) Final Intermolecular Energy     =   -9.79 kcal/mol
DOCKED: USER        vdW + Hbond + desolv Energy     =   -9.85 kcal/mol
DOCKED: USER        Electrostatic Energy            =   +0.05 kcal/mol
DOCKED: USER    (2) Final Total Internal Energy     =   -1.02 kcal/mol
DOCKED: USER    (3) Torsional Free Energy           =   +1.19 kcal/mol
DOCKED: USER    (4) Unbound System's Energy  [=(2)] =   -1.02 kcal/mol
DOCKED: USER    
DOCKED: USER    
DOCKED: USER    NEWDPF move final_struct.pdbqt
DOCKED: USER    NEWDPF about 2.061000 11.319000 -0.000000
DOCKED: USER    NEWDPF tran0 21.755156 39.886202 19.121181
DOCKED: USER    NEWDPF quaternion0 -0.584257 0.328525 -0.236709 0.703338
DOCKED: USER    NEWDPF axisangle0 -0.821907 0.462154 -0.332992 90.609207
DOCKED: USER    NEWDPF quat0 -0.821907 0.462154 -0.332992 90.609207
DOCKED: USER    NEWDPF dihe0 62.24 -159.66 -135.03 -176.12 
DOCKED: USER  keepresnum = 1 
DOCKED: USER  
DOCKED: REMARK  4 active torsions:
DOCKED: REMARK  status: ('A' for Active; 'I' for Inactive)
DOCKED: REMARK    1  A    between atoms: C00Q_4  and  N008_28 
DOCKED: REMARK    2  A    between atoms: C00Q_5  and  N008_29 
DOCKED: REMARK    3  A    between atoms: C00R_6  and  N2_24 
DOCKED: REMARK    4  A    between atoms: C00R_7  and  N2_25 
DOCKED: USER                              x       y       z     vdW  Elec       q    Type
DOCKED: USER                           _______ _______ _______ _____ _____    ______ ____
DOCKED: ROOT
DOCKED: ATOM      1 Pd02 UNK     1      21.755  39.886  19.121 -0.03 -0.00    +0.000 Pd
DOCKED: ATOM      2  C00 UNK     1      20.234  37.914  20.731 -0.08 -0.12    +0.162 C 
DOCKED: ATOM      3  C00 UNK     1      23.275  41.859  17.513 -0.19 -0.22    +0.162 C 
DOCKED: ATOM      4  C00 UNK     1      21.222  35.686  21.212 -0.17 -0.21    +0.285 C 
DOCKED: ATOM      5  C00 UNK     1      22.288  44.086  17.031 -0.28 -0.41    +0.285 C 
DOCKED: ATOM      6  C00 UNK     1      21.388  37.030  20.765 -0.14 -0.14    +0.192 C 
DOCKED: ATOM      7  C00 UNK     1      22.122  42.742  17.478 -0.30 -0.31    +0.192 C 
DOCKED: ATOM      8  N00 UNK     1      20.300  39.094  20.255 -0.02 +0.23    -0.281 N 
DOCKED: ATOM      9  N00 UNK     1      23.209  40.678  17.988 -0.08 +0.34    -0.281 N 
DOCKED: ATOM     10  N00 UNK     1      22.610  37.371  20.490 -0.14 +0.11    -0.140 NA
DOCKED: ATOM     11  N00 UNK     1      20.900  42.402  17.752 -4.16 +0.24    -0.140 NA
DOCKED: ATOM     12  N00 UNK     1      19.068  37.445  21.308 -0.04 +0.19    -0.286 N 
DOCKED: ATOM     13  N00 UNK     1      24.442  42.327  16.934 -0.09 +0.33    -0.286 N 
DOCKED: ATOM     14  N00 UNK     1      19.951  35.286  21.577 -0.11 +0.19    -0.268 N 
DOCKED: ATOM     15  N00 UNK     1      23.559  44.486  16.665 -0.14 +0.31    -0.268 N 
DOCKED: ATOM     16  O00 UNK     1      17.793  35.734  22.086 -0.07 +0.14    -0.246 OA
DOCKED: ATOM     17  O00 UNK     1      25.717  44.038  16.156 -0.10 +0.23    -0.246 OA
DOCKED: ATOM     18  O00 UNK     1      22.138  34.842  21.268 -0.22 +0.22    -0.265 OA
DOCKED: ATOM     19  O00 UNK     1      21.372  44.931  16.975 +0.08 +0.41    -0.265 OA
DOCKED: ATOM     20  N00 UNK     1      22.975  38.509  19.968 -0.10 +0.13    -0.150 N 
DOCKED: ATOM     21  N00 UNK     1      20.534  41.264  18.275 -0.23 +0.22    -0.150 N 
DOCKED: ATOM     22  C01 UNK     1      18.868  36.142  21.702 -0.05 -0.21    +0.332 C 
DOCKED: ATOM     23  C01 UNK     1      24.642  43.630  16.540 -0.09 -0.36    +0.332 C 
DOCKED: ATOM     24  C01 UNK     1      19.753  33.869  22.009 -0.09 -0.11    +0.164 C 
DOCKED: ATOM     25  C01 UNK     1      23.758  45.904  16.233 -0.24 -0.16    +0.164 C 
DOCKED: ATOM     26  C01 UNK     1      17.918  38.333  21.480 -0.22 -0.10    +0.163 C 
DOCKED: ATOM     27  C01 UNK     1      25.592  41.439  16.762 -0.18 -0.15    +0.163 C 
DOCKED: ATOM     28 BH00 UNK     1      19.642  39.614  20.442 +0.08 -0.16    +0.188 HD
DOCKED: ATOM     29 BH00 UNK     1      23.868  40.158  17.800 +0.08 -0.21    +0.188 HD
DOCKED: ENDROOT
DOCKED: BRANCH  20  30
DOCKED: ATOM     30  C00 UNK     1      24.384  38.647  19.886 -0.12 -0.07    +0.079 A 
DOCKED: ATOM     31  C00 UNK     1      25.056  38.284  18.717 -0.18 -0.03    +0.036 A 
DOCKED: ATOM     32  C01 UNK     1      26.425  38.390  18.643 -0.24 -0.03    +0.031 A 
DOCKED: ATOM     33  C00 UNK     1      27.153  38.837  19.721 -0.15 -0.03    +0.025 A 
DOCKED: ATOM     34  C01 UNK     1      26.518  39.217  20.862 -0.10 -0.04    +0.031 A 
DOCKED: ATOM     35  C01 UNK     1      25.142  39.158  20.971 -0.09 -0.04    +0.036 A 
DOCKED: BRANCH  33  36
DOCKED: ATOM     36  N2  UNK     1      28.883  38.902  19.617 -0.04 +0.50    -0.399 N 
DOCKED: ATOM     37  H2a UNK     1      29.261  39.412  19.038 +0.04 -0.16    +0.156 HD
DOCKED: ATOM     38  H2b UNK     1      29.363  38.424  20.147 +0.00 -0.25    +0.156 HD
DOCKED: ENDBRANCH  33  36
DOCKED: ENDBRANCH  20  30
DOCKED: BRANCH  21  39
DOCKED: ATOM     39  C00 UNK     1      19.126  41.125  18.356 -0.37 -0.10    +0.079 A 
DOCKED: ATOM     40  C00 UNK     1      18.344  42.186  18.818 -0.46 -0.05    +0.036 A 
DOCKED: ATOM     41  C01 UNK     1      16.975  42.066  18.873 +0.52 -0.04    +0.031 A 
DOCKED: ATOM     42  C00 UNK     1      16.355  40.909  18.458 -0.36 -0.03    +0.025 A 
DOCKED: ATOM     43  C01 UNK     1      17.098  39.856  18.025 -0.49 -0.03    +0.031 A 
DOCKED: ATOM     44  C01 UNK     1      18.477  39.920  17.983 -0.36 -0.04    +0.036 A 
DOCKED: BRANCH  42  45
DOCKED: ATOM     45  N2  UNK     1      14.625  40.811  18.483 -0.02 +0.44    -0.399 N 
DOCKED: ATOM     46  H2a UNK     1      14.237  40.045  18.483 +0.12 -0.14    +0.156 HD
DOCKED: ATOM     47  H2b UNK     1      14.154  41.531  18.494 -0.24 -0.22    +0.156 HD
DOCKED: ENDBRANCH  42  45
DOCKED: ENDBRANCH  21  39
DOCKED: TORSDOF 4
DOCKED: TER
DOCKED: ENDMDL
________________________________________________________________________________


	BEGINNING GENETIC ALGORITHM DOCKING 20 of 25
Run: 20 Seed: 312446585 155017597 [ Run 20 of 25 GA/GALS ]
Beginning LAMARCKIAN GENETIC ALGORITHM (LGA), with a maximum of 2500000 energy evaluations.

Final-Value: -11.183


	FINAL GENETIC ALGORITHM DOCKED STATE
	_______________________________________________


Detailed state:  trans 21.726 39.907 19.168 quatxyzw -0.581310 0.346699 -0.269844 0.684882 center 2.061 11.319 -0.000 ntor 4 77.9301 -154.6877 -139.5145 166.5162
State:	 21.726  39.907  19.168  -0.798  0.476 -0.370 93.547     77.93 -154.69 -139.51  166.52

DOCKED: MODEL       20
DOCKED: USER    Run = 20
DOCKED: USER    DPF = final_struct_1LML_clean_h_TZ.dpf
DOCKED: USER  
DOCKED: USER    Estimated Free Energy of Binding    =   -8.83 kcal/mol  [=(1)+(2)+(3)-(4)]
DOCKED: USER    Estimated Inhibition Constant, Ki   =  336.04 nM (nanomolar)  [Temperature = 298.15 K]
DOCKED: USER    
DOCKED: USER    (1) Final Intermolecular Energy     =  -10.02 kcal/mol
DOCKED: USER        vdW + Hbond + desolv Energy     =  -10.10 kcal/mol
DOCKED: USER        Electrostatic Energy            =   +0.07 kcal/mol
DOCKED: USER    (2) Final Total Internal Energy     =   -1.16 kcal/mol
DOCKED: USER    (3) Torsional Free Energy           =   +1.19 kcal/mol
DOCKED: USER    (4) Unbound System's Energy  [=(2)] =   -1.16 kcal/mol
DOCKED: USER    
DOCKED: USER    
DOCKED: USER    NEWDPF move final_struct.pdbqt
DOCKED: USER    NEWDPF about 2.061000 11.319000 -0.000000
DOCKED: USER    NEWDPF tran0 21.725872 39.906768 19.167782
DOCKED: USER    NEWDPF quaternion0 -0.581310 0.346699 -0.269844 0.684882
DOCKED: USER    NEWDPF axisangle0 -0.797785 0.475807 -0.370332 93.547406
DOCKED: USER    NEWDPF quat0 -0.797785 0.475807 -0.370332 93.547406
DOCKED: USER    NEWDPF dihe0 77.93 -154.69 -139.51 166.52 
DOCKED: USER  keepresnum = 1 
DOCKED: USER  
DOCKED: REMARK  4 active torsions:
DOCKED: REMARK  status: ('A' for Active; 'I' for Inactive)
DOCKED: REMARK    1  A    between atoms: C00Q_4  and  N008_28 
DOCKED: REMARK    2  A    between atoms: C00Q_5  and  N008_29 
DOCKED: REMARK    3  A    between atoms: C00R_6  and  N2_24 
DOCKED: REMARK    4  A    between atoms: C00R_7  and  N2_25 
DOCKED: USER                              x       y       z     vdW  Elec       q    Type
DOCKED: USER                           _______ _______ _______ _____ _____    ______ ____
DOCKED: ROOT
DOCKED: ATOM      1 Pd02 UNK     1      21.726  39.907  19.168 -0.02 -0.00    +0.000 Pd
DOCKED: ATOM      2  C00 UNK     1      20.149  37.878  20.648 -0.09 -0.12    +0.162 C 
DOCKED: ATOM      3  C00 UNK     1      23.302  41.936  17.688 -0.18 -0.21    +0.162 C 
DOCKED: ATOM      4  C00 UNK     1      21.168  35.680  21.198 -0.17 -0.21    +0.285 C 
DOCKED: ATOM      5  C00 UNK     1      22.284  44.133  17.138 -0.28 -0.40    +0.285 C 
DOCKED: ATOM      6  C00 UNK     1      21.325  37.032  20.769 -0.14 -0.14    +0.192 C 
DOCKED: ATOM      7  C00 UNK     1      22.127  42.782  17.566 -0.30 -0.30    +0.192 C 
DOCKED: ATOM      8  N00 UNK     1      20.214  39.062  20.183 -0.02 +0.24    -0.281 N 
DOCKED: ATOM      9  N00 UNK     1      23.237  40.751  18.154 -0.06 +0.32    -0.281 N 
DOCKED: ATOM     10  N00 UNK     1      22.553  37.412  20.592 -0.13 +0.11    -0.140 NA
DOCKED: ATOM     11  N00 UNK     1      20.899  42.401  17.744 -4.19 +0.24    -0.140 NA
DOCKED: ATOM     12  N00 UNK     1      18.957  37.369  21.132 -0.05 +0.19    -0.286 N 
DOCKED: ATOM     13  N00 UNK     1      24.495  42.444  17.204 -0.07 +0.32    -0.286 N 
DOCKED: ATOM     14  N00 UNK     1      19.886  35.238  21.462 -0.11 +0.19    -0.268 N 
DOCKED: ATOM     15  N00 UNK     1      23.566  44.576  16.873 -0.14 +0.30    -0.268 N 
DOCKED: ATOM     16  O00 UNK     1      17.682  35.614  21.803 -0.08 +0.14    -0.246 OA
DOCKED: ATOM     17  O00 UNK     1      25.770  44.200  16.532 -0.07 +0.22    -0.246 OA
DOCKED: ATOM     18  O00 UNK     1      22.103  34.866  21.323 -0.24 +0.22    -0.265 OA
DOCKED: ATOM     19  O00 UNK     1      21.348  44.948  17.013 +0.01 +0.41    -0.265 OA
DOCKED: ATOM     20  N00 UNK     1      22.920  38.564  20.102 -0.09 +0.13    -0.150 N 
DOCKED: ATOM     21  N00 UNK     1      20.530  41.249  18.233 -0.23 +0.22    -0.150 N 
DOCKED: ATOM     22  C01 UNK     1      18.770  36.058  21.505 -0.06 -0.21    +0.332 C 
DOCKED: ATOM     23  C01 UNK     1      24.682  43.756  16.830 -0.07 -0.34    +0.332 C 
DOCKED: ATOM     24  C01 UNK     1      19.701  33.812  21.873 -0.06 -0.11    +0.164 C 
DOCKED: ATOM     25  C01 UNK     1      23.751  46.001  16.462 -0.24 -0.16    +0.164 C 
DOCKED: ATOM     26  C01 UNK     1      17.769  38.219  21.217 -0.23 -0.09    +0.163 C 
DOCKED: ATOM     27  C01 UNK     1      25.682  41.595  17.119 -0.15 -0.15    +0.163 C 
DOCKED: ATOM     28 BH00 UNK     1      19.527  39.560  20.320 +0.08 -0.17    +0.188 HD
DOCKED: ATOM     29 BH00 UNK     1      23.925  40.254  18.016 +0.08 -0.20    +0.188 HD
DOCKED: ENDROOT
DOCKED: BRANCH  20  30
DOCKED: ATOM     30  C00 UNK     1      24.326  38.748  20.131 -0.10 -0.07    +0.079 A 
DOCKED: ATOM     31  C00 UNK     1      25.109  38.326  19.054 -0.17 -0.03    +0.036 A 
DOCKED: ATOM     32  C01 UNK     1      26.475  38.477  19.089 -0.21 -0.03    +0.031 A 
DOCKED: ATOM     33  C00 UNK     1      27.092  39.028  20.189 -0.13 -0.03    +0.025 A 
DOCKED: ATOM     34  C01 UNK     1      26.348  39.465  21.240 -0.08 -0.03    +0.031 A 
DOCKED: ATOM     35  C01 UNK     1      24.970  39.363  21.235 -0.07 -0.03    +0.036 A 
DOCKED: BRANCH  33  36
DOCKED: ATOM     36  N2  UNK     1      28.821  39.148  20.229 -0.04 +0.54    -0.399 N 
DOCKED: ATOM     37  H2a UNK     1      29.220  39.771  19.791 +0.03 -0.16    +0.156 HD
DOCKED: ATOM     38  H2b UNK     1      29.281  38.584  20.687 -0.05 -0.27    +0.156 HD
DOCKED: ENDBRANCH  33  36
DOCKED: ENDBRANCH  20  30
DOCKED: BRANCH  21  39
DOCKED: ATOM     39  C00 UNK     1      19.126  41.065  18.204 -0.36 -0.11    +0.079 A 
DOCKED: ATOM     40  C00 UNK     1      18.292  41.923  18.926 -0.45 -0.05    +0.036 A 
DOCKED: ATOM     41  C01 UNK     1      16.927  41.765  18.879 +0.15 -0.04    +0.031 A 
DOCKED: ATOM     42  C00 UNK     1      16.361  40.775  18.109 -0.16 -0.03    +0.025 A 
DOCKED: ATOM     43  C01 UNK     1      17.154  39.915  17.415 -0.47 -0.03    +0.031 A 
DOCKED: ATOM     44  C01 UNK     1      18.531  40.016  17.457 -0.39 -0.05    +0.036 A 
DOCKED: BRANCH  42  45
DOCKED: ATOM     45  N2  UNK     1      14.635  40.641  18.024 -0.26 +0.41    -0.399 N 
DOCKED: ATOM     46  H2a UNK     1      14.271  39.885  17.839 +0.12 -0.12    +0.156 HD
DOCKED: ATOM     47  H2b UNK     1      14.143  41.331  18.166 -0.18 -0.19    +0.156 HD
DOCKED: ENDBRANCH  42  45
DOCKED: ENDBRANCH  21  39
DOCKED: TORSDOF 4
DOCKED: TER
DOCKED: ENDMDL
________________________________________________________________________________


	BEGINNING GENETIC ALGORITHM DOCKING 21 of 25
Run: 21 Seed: 111091108 913326416 [ Run 21 of 25 GA/GALS ]
Beginning LAMARCKIAN GENETIC ALGORITHM (LGA), with a maximum of 2500000 energy evaluations.

Final-Value: -10.086


	FINAL GENETIC ALGORITHM DOCKED STATE
	_______________________________________________


Detailed state:  trans 21.608 39.780 19.134 quatxyzw 0.332460 0.849515 0.408875 -0.024834 center 2.061 11.319 -0.000 ntor 4 -162.8058 -119.5256 43.6372 153.0787
State:	 21.608  39.780  19.134   0.333  0.850  0.409 -177.154   -162.81 -119.53   43.64  153.08

DOCKED: MODEL       21
DOCKED: USER    Run = 21
DOCKED: USER    DPF = final_struct_1LML_clean_h_TZ.dpf
DOCKED: USER  
DOCKED: USER    Estimated Free Energy of Binding    =   -7.71 kcal/mol  [=(1)+(2)+(3)-(4)]
DOCKED: USER    Estimated Inhibition Constant, Ki   =    2.24 uM (micromolar)  [Temperature = 298.15 K]
DOCKED: USER    
DOCKED: USER    (1) Final Intermolecular Energy     =   -8.90 kcal/mol
DOCKED: USER        vdW + Hbond + desolv Energy     =   -9.00 kcal/mol
DOCKED: USER        Electrostatic Energy            =   +0.10 kcal/mol
DOCKED: USER    (2) Final Total Internal Energy     =   -1.19 kcal/mol
DOCKED: USER    (3) Torsional Free Energy           =   +1.19 kcal/mol
DOCKED: USER    (4) Unbound System's Energy  [=(2)] =   -1.19 kcal/mol
DOCKED: USER    
DOCKED: USER    
DOCKED: USER    NEWDPF move final_struct.pdbqt
DOCKED: USER    NEWDPF about 2.061000 11.319000 -0.000000
DOCKED: USER    NEWDPF tran0 21.608419 39.780286 19.133764
DOCKED: USER    NEWDPF quaternion0 0.332460 0.849515 0.408875 -0.024834
DOCKED: USER    NEWDPF axisangle0 0.332563 0.849777 0.409001 -177.153983
DOCKED: USER    NEWDPF quat0 0.332563 0.849777 0.409001 -177.153983
DOCKED: USER    NEWDPF dihe0 -162.81 -119.53 43.64 153.08 
DOCKED: USER  keepresnum = 1 
DOCKED: USER  
DOCKED: REMARK  4 active torsions:
DOCKED: REMARK  status: ('A' for Active; 'I' for Inactive)
DOCKED: REMARK    1  A    between atoms: C00Q_4  and  N008_28 
DOCKED: REMARK    2  A    between atoms: C00Q_5  and  N008_29 
DOCKED: REMARK    3  A    between atoms: C00R_6  and  N2_24 
DOCKED: REMARK    4  A    between atoms: C00R_7  and  N2_25 
DOCKED: USER                              x       y       z     vdW  Elec       q    Type
DOCKED: USER                           _______ _______ _______ _____ _____    ______ ____
DOCKED: ROOT
DOCKED: ATOM      1 Pd02 UNK     1      21.608  39.780  19.134 -0.03 -0.00    +0.000 Pd
DOCKED: ATOM      2  C00 UNK     1      23.103  42.327  18.869 -0.15 -0.17    +0.162 C 
DOCKED: ATOM      3  C00 UNK     1      20.114  37.234  19.400 -0.19 -0.12    +0.162 C 
DOCKED: ATOM      4  C00 UNK     1      22.404  44.000  17.171 -0.28 -0.40    +0.285 C 
DOCKED: ATOM      5  C00 UNK     1      20.813  35.560  21.097 -0.15 -0.22    +0.285 C 
DOCKED: ATOM      6  C00 UNK     1      22.114  42.827  17.928 -0.29 -0.27    +0.192 C 
DOCKED: ATOM      7  C00 UNK     1      21.103  36.734  20.340 -0.19 -0.14    +0.192 C 
DOCKED: ATOM      8  N00 UNK     1      22.941  41.235  19.504 -0.03 +0.27    -0.281 N 
DOCKED: ATOM      9  N00 UNK     1      20.276  38.326  18.764 -0.06 +0.25    -0.281 N 
DOCKED: ATOM     10  N00 UNK     1      20.923  42.341  17.753 -3.46 +0.24    -0.140 NA
DOCKED: ATOM     11  N00 UNK     1      22.294  37.220  20.515 -0.15 +0.11    -0.140 NA
DOCKED: ATOM     12  N00 UNK     1      24.205  43.130  19.105 -0.07 +0.25    -0.286 N 
DOCKED: ATOM     13  N00 UNK     1      19.012  36.431  19.162 -0.14 +0.19    -0.286 N 
DOCKED: ATOM     14  N00 UNK     1      23.635  44.598  17.363 -0.13 +0.29    -0.268 N 
DOCKED: ATOM     15  N00 UNK     1      19.582  34.963  20.905 -0.10 +0.21    -0.268 N 
DOCKED: ATOM     16  O00 UNK     1      25.570  44.845  18.509 -0.11 +0.18    -0.246 OA
DOCKED: ATOM     17  O00 UNK     1      17.647  34.716  19.759 -0.20 +0.16    -0.246 OA
DOCKED: ATOM     18  O00 UNK     1      21.636  44.506  16.329 +0.71 +0.44    -0.265 OA
DOCKED: ATOM     19  O00 UNK     1      21.582  35.055  21.939 -0.21 +0.20    -0.265 OA
DOCKED: ATOM     20  N00 UNK     1      20.486  41.221  18.259 -0.23 +0.22    -0.150 N 
DOCKED: ATOM     21  N00 UNK     1      22.732  38.339  20.009 -0.10 +0.13    -0.150 N 
DOCKED: ATOM     22  C01 UNK     1      24.531  44.238  18.357 -0.07 -0.29    +0.332 C 
DOCKED: ATOM     23  C01 UNK     1      18.686  35.323  19.910 -0.16 -0.23    +0.332 C 
DOCKED: ATOM     24  C01 UNK     1      23.971  45.805  16.547 -0.21 -0.15    +0.164 C 
DOCKED: ATOM     25  C01 UNK     1      19.246  33.756  21.720 -0.07 -0.11    +0.164 C 
DOCKED: ATOM     26  C01 UNK     1      25.153  42.792  20.167 -0.09 -0.11    +0.163 C 
DOCKED: ATOM     27  C01 UNK     1      18.064  36.769  18.100 -0.31 -0.11    +0.163 C 
DOCKED: ATOM     28 BH00 UNK     1      23.465  41.106  20.172 +0.05 -0.16    +0.188 HD
DOCKED: ATOM     29 BH00 UNK     1      19.752  38.455  18.095 +0.12 -0.18    +0.188 HD
DOCKED: ENDROOT
DOCKED: BRANCH  20  30
DOCKED: ATOM     30  C00 UNK     1      19.110  41.001  17.993 -0.36 -0.11    +0.079 A 
DOCKED: ATOM     31  C00 UNK     1      18.141  41.508  18.861 -0.46 -0.04    +0.036 A 
DOCKED: ATOM     32  C01 UNK     1      16.807  41.274  18.623 -0.22 -0.04    +0.031 A 
DOCKED: ATOM     33  C00 UNK     1      16.408  40.524  17.540 -0.01 -0.03    +0.025 A 
DOCKED: ATOM     34  C01 UNK     1      17.334  40.038  16.670 -0.26 -0.03    +0.031 A 
DOCKED: ATOM     35  C01 UNK     1      18.683  40.276  16.852 -0.30 -0.06    +0.036 A 
DOCKED: BRANCH  33  36
DOCKED: ATOM     36  N2  UNK     1      14.723  40.194  17.301 -0.26 +0.35    -0.399 N 
DOCKED: ATOM     37  H2a UNK     1      14.478  39.561  16.775 +0.13 -0.11    +0.156 HD
DOCKED: ATOM     38  H2b UNK     1      14.131  40.666  17.710 +0.10 -0.15    +0.156 HD
DOCKED: ENDBRANCH  33  36
DOCKED: ENDBRANCH  20  30
DOCKED: BRANCH  21  39
DOCKED: ATOM     39  C00 UNK     1      24.107  38.560  20.274 -0.10 -0.07    +0.079 A 
DOCKED: ATOM     40  C00 UNK     1      24.518  38.964  21.546 -0.07 -0.03    +0.036 A 
DOCKED: ATOM     41  C01 UNK     1      25.853  39.153  21.816 -0.08 -0.03    +0.031 A 
DOCKED: ATOM     42  C00 UNK     1      26.804  38.930  20.846 -0.09 -0.03    +0.025 A 
DOCKED: ATOM     43  C01 UNK     1      26.425  38.557  19.594 -0.18 -0.04    +0.031 A 
DOCKED: ATOM     44  C01 UNK     1      25.093  38.386  19.269 -0.16 -0.03    +0.036 A 
DOCKED: BRANCH  42  45
DOCKED: ATOM     45  N2  UNK     1      28.482  39.118  21.235 +0.00 +0.66    -0.399 N 
DOCKED: ATOM     46  H2a UNK     1      28.959  39.696  20.815 +0.02 -0.19    +0.156 HD
DOCKED: ATOM     47  H2b UNK     1      28.838  38.631  21.848 -0.40 -0.36    +0.156 HD
DOCKED: ENDBRANCH  42  45
DOCKED: ENDBRANCH  21  39
DOCKED: TORSDOF 4
DOCKED: TER
DOCKED: ENDMDL
________________________________________________________________________________


	BEGINNING GENETIC ALGORITHM DOCKING 22 of 25
Run: 22 Seed: 1760215977 1446085188 [ Run 22 of 25 GA/GALS ]
Beginning LAMARCKIAN GENETIC ALGORITHM (LGA), with a maximum of 2500000 energy evaluations.

Final-Value: -10.198


	FINAL GENETIC ALGORITHM DOCKED STATE
	_______________________________________________


Detailed state:  trans 21.566 39.875 19.249 quatxyzw 0.322926 0.857849 0.397476 -0.042744 center 2.061 11.319 -0.000 ntor 4 80.4958 -91.8272 41.1410 157.3337
State:	 21.566  39.875  19.249   0.323  0.859  0.398 -175.100     80.50  -91.83   41.14  157.33

DOCKED: MODEL       22
DOCKED: USER    Run = 22
DOCKED: USER    DPF = final_struct_1LML_clean_h_TZ.dpf
DOCKED: USER  
DOCKED: USER    Estimated Free Energy of Binding    =   -7.81 kcal/mol  [=(1)+(2)+(3)-(4)]
DOCKED: USER    Estimated Inhibition Constant, Ki   =    1.88 uM (micromolar)  [Temperature = 298.15 K]
DOCKED: USER    
DOCKED: USER    (1) Final Intermolecular Energy     =   -9.00 kcal/mol
DOCKED: USER        vdW + Hbond + desolv Energy     =   -9.10 kcal/mol
DOCKED: USER        Electrostatic Energy            =   +0.09 kcal/mol
DOCKED: USER    (2) Final Total Internal Energy     =   -1.19 kcal/mol
DOCKED: USER    (3) Torsional Free Energy           =   +1.19 kcal/mol
DOCKED: USER    (4) Unbound System's Energy  [=(2)] =   -1.19 kcal/mol
DOCKED: USER    
DOCKED: USER    
DOCKED: USER    NEWDPF move final_struct.pdbqt
DOCKED: USER    NEWDPF about 2.061000 11.319000 -0.000000
DOCKED: USER    NEWDPF tran0 21.565537 39.874524 19.249410
DOCKED: USER    NEWDPF quaternion0 0.322926 0.857849 0.397476 -0.042744
DOCKED: USER    NEWDPF axisangle0 0.323222 0.858634 0.397839 -175.100443
DOCKED: USER    NEWDPF quat0 0.323222 0.858634 0.397839 -175.100443
DOCKED: USER    NEWDPF dihe0 80.50 -91.83 41.14 157.33 
DOCKED: USER  keepresnum = 1 
DOCKED: USER  
DOCKED: REMARK  4 active torsions:
DOCKED: REMARK  status: ('A' for Active; 'I' for Inactive)
DOCKED: REMARK    1  A    between atoms: C00Q_4  and  N008_28 
DOCKED: REMARK    2  A    between atoms: C00Q_5  and  N008_29 
DOCKED: REMARK    3  A    between atoms: C00R_6  and  N2_24 
DOCKED: REMARK    4  A    between atoms: C00R_7  and  N2_25 
DOCKED: USER                              x       y       z     vdW  Elec       q    Type
DOCKED: USER                           _______ _______ _______ _____ _____    ______ ____
DOCKED: ROOT
DOCKED: ATOM      1 Pd02 UNK     1      21.566  39.875  19.249 -0.02 -0.00    +0.000 Pd
DOCKED: ATOM      2  C00 UNK     1      23.053  42.420  18.931 -0.15 -0.17    +0.162 C 
DOCKED: ATOM      3  C00 UNK     1      20.079  37.329  19.568 -0.17 -0.12    +0.162 C 
DOCKED: ATOM      4  C00 UNK     1      22.395  44.021  17.149 -0.28 -0.40    +0.285 C 
DOCKED: ATOM      5  C00 UNK     1      20.736  35.728  21.349 -0.15 -0.21    +0.285 C 
DOCKED: ATOM      6  C00 UNK     1      22.089  42.876  17.942 -0.29 -0.27    +0.192 C 
DOCKED: ATOM      7  C00 UNK     1      21.042  36.873  20.556 -0.16 -0.14    +0.192 C 
DOCKED: ATOM      8  N00 UNK     1      22.878  41.352  19.603 -0.03 +0.26    -0.281 N 
DOCKED: ATOM      9  N00 UNK     1      20.254  38.398  18.896 -0.05 +0.25    -0.281 N 
DOCKED: ATOM     10  N00 UNK     1      20.907  42.375  17.750 -3.91 +0.24    -0.140 NA
DOCKED: ATOM     11  N00 UNK     1      22.224  37.374  20.749 -0.12 +0.11    -0.140 NA
DOCKED: ATOM     12  N00 UNK     1      24.142  43.239  19.170 -0.08 +0.25    -0.286 N 
DOCKED: ATOM     13  N00 UNK     1      18.989  36.510  19.329 -0.12 +0.20    -0.286 N 
DOCKED: ATOM     14  N00 UNK     1      23.616  44.634  17.356 -0.13 +0.29    -0.268 N 
DOCKED: ATOM     15  N00 UNK     1      19.515  35.115  21.143 -0.11 +0.19    -0.268 N 
DOCKED: ATOM     16  O00 UNK     1      25.514  44.939  18.548 -0.11 +0.18    -0.246 OA
DOCKED: ATOM     17  O00 UNK     1      17.617  34.810  19.950 -0.18 +0.16    -0.246 OA
DOCKED: ATOM     18  O00 UNK     1      21.650  44.489  16.266 +0.71 +0.45    -0.265 OA
DOCKED: ATOM     19  O00 UNK     1      21.482  35.261  22.233 -0.16 +0.20    -0.265 OA
DOCKED: ATOM     20  N00 UNK     1      20.462  41.273  18.286 -0.23 +0.22    -0.150 N 
DOCKED: ATOM     21  N00 UNK     1      22.671  38.476  20.213 -0.08 +0.13    -0.150 N 
DOCKED: ATOM     22  C01 UNK     1      24.484  44.320  18.389 -0.06 -0.29    +0.332 C 
DOCKED: ATOM     23  C01 UNK     1      18.647  35.429  20.109 -0.15 -0.23    +0.332 C 
DOCKED: ATOM     24  C01 UNK     1      23.969  45.812  16.504 -0.21 -0.15    +0.164 C 
DOCKED: ATOM     25  C01 UNK     1      19.162  33.938  21.995 -0.13 -0.11    +0.164 C 
DOCKED: ATOM     26  C01 UNK     1      25.059  42.949  20.272 -0.04 -0.11    +0.163 C 
DOCKED: ATOM     27  C01 UNK     1      18.072  36.800  18.227 -0.31 -0.11    +0.163 C 
DOCKED: ATOM     28 BH00 UNK     1      23.382  41.252  20.291 +0.05 -0.16    +0.188 HD
DOCKED: ATOM     29 BH00 UNK     1      19.749  38.497  18.207 +0.11 -0.18    +0.188 HD
DOCKED: ENDROOT
DOCKED: BRANCH  20  30
DOCKED: ATOM     30  C00 UNK     1      19.096  41.032  17.988 -0.36 -0.11    +0.079 A 
DOCKED: ATOM     31  C00 UNK     1      18.099  41.522  18.835 -0.46 -0.04    +0.036 A 
DOCKED: ATOM     32  C01 UNK     1      16.775  41.268  18.565 -0.19 -0.04    +0.031 A 
DOCKED: ATOM     33  C00 UNK     1      16.413  40.516  17.471 +0.07 -0.03    +0.025 A 
DOCKED: ATOM     34  C01 UNK     1      17.366  40.048  16.620 -0.24 -0.03    +0.031 A 
DOCKED: ATOM     35  C01 UNK     1      18.706  40.305  16.834 -0.27 -0.06    +0.036 A 
DOCKED: BRANCH  33  36
DOCKED: ATOM     36  N2  UNK     1      14.739  40.162  17.192 -0.26 +0.35    -0.399 N 
DOCKED: ATOM     37  H2a UNK     1      14.230  40.749  16.823 +0.09 -0.15    +0.156 HD
DOCKED: ATOM     38  H2b UNK     1      14.417  39.399  17.422 +0.12 -0.11    +0.156 HD
DOCKED: ENDBRANCH  33  36
DOCKED: ENDBRANCH  20  30
DOCKED: BRANCH  21  39
DOCKED: ATOM     39  C00 UNK     1      24.035  38.717  20.511 -0.09 -0.07    +0.079 A 
DOCKED: ATOM     40  C00 UNK     1      24.415  39.086  21.803 -0.06 -0.03    +0.036 A 
DOCKED: ATOM     41  C01 UNK     1      25.741  39.294  22.103 -0.07 -0.03    +0.031 A 
DOCKED: ATOM     42  C00 UNK     1      26.713  39.124  21.144 -0.09 -0.03    +0.025 A 
DOCKED: ATOM     43  C01 UNK     1      26.364  38.785  19.874 -0.15 -0.04    +0.031 A 
DOCKED: ATOM     44  C01 UNK     1      25.043  38.597  19.519 -0.15 -0.03    +0.036 A 
DOCKED: BRANCH  42  45
DOCKED: ATOM     45  N2  UNK     1      28.380  39.334  21.570 -0.02 +0.62    -0.399 N 
DOCKED: ATOM     46  H2a UNK     1      28.754  40.101  21.478 +0.01 -0.18    +0.156 HD
DOCKED: ATOM     47  H2b UNK     1      28.832  38.668  21.873 -0.39 -0.35    +0.156 HD
DOCKED: ENDBRANCH  42  45
DOCKED: ENDBRANCH  21  39
DOCKED: TORSDOF 4
DOCKED: TER
DOCKED: ENDMDL
________________________________________________________________________________


	BEGINNING GENETIC ALGORITHM DOCKING 23 of 25
Run: 23 Seed: 1750295756 1728377989 [ Run 23 of 25 GA/GALS ]
Beginning LAMARCKIAN GENETIC ALGORITHM (LGA), with a maximum of 2500000 energy evaluations.

Final-Value: -10.813


	FINAL GENETIC ALGORITHM DOCKED STATE
	_______________________________________________


Detailed state:  trans 21.796 39.971 19.240 quatxyzw -0.579735 0.343784 -0.303234 0.673624 center 2.061 11.319 -0.000 ntor 4 113.8894 -157.4676 22.9692 163.1466
State:	 21.796  39.971  19.240  -0.784  0.465 -0.410 95.305    113.89 -157.47   22.97  163.15

DOCKED: MODEL       23
DOCKED: USER    Run = 23
DOCKED: USER    DPF = final_struct_1LML_clean_h_TZ.dpf
DOCKED: USER  
DOCKED: USER    Estimated Free Energy of Binding    =   -8.42 kcal/mol  [=(1)+(2)+(3)-(4)]
DOCKED: USER    Estimated Inhibition Constant, Ki   =  672.53 nM (nanomolar)  [Temperature = 298.15 K]
DOCKED: USER    
DOCKED: USER    (1) Final Intermolecular Energy     =   -9.61 kcal/mol
DOCKED: USER        vdW + Hbond + desolv Energy     =   -9.70 kcal/mol
DOCKED: USER        Electrostatic Energy            =   +0.09 kcal/mol
DOCKED: USER    (2) Final Total Internal Energy     =   -1.20 kcal/mol
DOCKED: USER    (3) Torsional Free Energy           =   +1.19 kcal/mol
DOCKED: USER    (4) Unbound System's Energy  [=(2)] =   -1.20 kcal/mol
DOCKED: USER    
DOCKED: USER    
DOCKED: USER    NEWDPF move final_struct.pdbqt
DOCKED: USER    NEWDPF about 2.061000 11.319000 -0.000000
DOCKED: USER    NEWDPF tran0 21.795567 39.970951 19.240259
DOCKED: USER    NEWDPF quaternion0 -0.579735 0.343784 -0.303234 0.673624
DOCKED: USER    NEWDPF axisangle0 -0.784407 0.465155 -0.410289 95.305246
DOCKED: USER    NEWDPF quat0 -0.784407 0.465155 -0.410289 95.305246
DOCKED: USER    NEWDPF dihe0 113.89 -157.47 22.97 163.15 
DOCKED: USER  keepresnum = 1 
DOCKED: USER  
DOCKED: REMARK  4 active torsions:
DOCKED: REMARK  status: ('A' for Active; 'I' for Inactive)
DOCKED: REMARK    1  A    between atoms: C00Q_4  and  N008_28 
DOCKED: REMARK    2  A    between atoms: C00Q_5  and  N008_29 
DOCKED: REMARK    3  A    between atoms: C00R_6  and  N2_24 
DOCKED: REMARK    4  A    between atoms: C00R_7  and  N2_25 
DOCKED: USER                              x       y       z     vdW  Elec       q    Type
DOCKED: USER                           _______ _______ _______ _____ _____    ______ ____
DOCKED: ROOT
DOCKED: ATOM      1 Pd02 UNK     1      21.796  39.971  19.240 -0.02 -0.00    +0.000 Pd
DOCKED: ATOM      2  C00 UNK     1      20.267  37.878  20.681 -0.08 -0.12    +0.162 C 
DOCKED: ATOM      3  C00 UNK     1      23.324  42.064  17.800 -0.17 -0.20    +0.162 C 
DOCKED: ATOM      4  C00 UNK     1      21.378  35.746  21.307 -0.17 -0.21    +0.285 C 
DOCKED: ATOM      5  C00 UNK     1      22.214  44.195  17.173 -0.28 -0.40    +0.285 C 
DOCKED: ATOM      6  C00 UNK     1      21.480  37.099  20.866 -0.13 -0.14    +0.192 C 
DOCKED: ATOM      7  C00 UNK     1      22.111  42.843  17.615 -0.30 -0.29    +0.192 C 
DOCKED: ATOM      8  N00 UNK     1      20.288  39.059  20.201 -0.02 +0.24    -0.281 N 
DOCKED: ATOM      9  N00 UNK     1      23.303  40.884  18.280 -0.05 +0.32    -0.281 N 
DOCKED: ATOM     10  N00 UNK     1      22.692  37.543  20.736 -0.12 +0.11    -0.140 NA
DOCKED: ATOM     11  N00 UNK     1      20.899  42.399  17.745 -4.19 +0.24    -0.140 NA
DOCKED: ATOM     12  N00 UNK     1      19.084  37.312  21.121 -0.04 +0.19    -0.286 N 
DOCKED: ATOM     13  N00 UNK     1      24.507  42.630  17.359 -0.05 +0.30    -0.286 N 
DOCKED: ATOM     14  N00 UNK     1      20.110  35.238  21.523 -0.12 +0.19    -0.268 N 
DOCKED: ATOM     15  N00 UNK     1      23.481  44.704  16.958 -0.15 +0.30    -0.268 N 
DOCKED: ATOM     16  O00 UNK     1      17.876  35.498  21.763 -0.08 +0.14    -0.246 OA
DOCKED: ATOM     17  O00 UNK     1      25.715  44.444  16.718 -0.06 +0.21    -0.246 OA
DOCKED: ATOM     18  O00 UNK     1      22.349  34.985  21.485 -0.28 +0.22    -0.265 OA
DOCKED: ATOM     19  O00 UNK     1      21.241  44.957  16.996 +0.26 +0.42    -0.265 OA
DOCKED: ATOM     20  N00 UNK     1      23.018  38.707  20.245 -0.08 +0.13    -0.150 N 
DOCKED: ATOM     21  N00 UNK     1      20.572  41.235  18.235 -0.22 +0.22    -0.150 N 
DOCKED: ATOM     22  C01 UNK     1      18.951  35.997  21.505 -0.06 -0.21    +0.332 C 
DOCKED: ATOM     23  C01 UNK     1      24.640  43.945  16.975 -0.07 -0.33    +0.332 C 
DOCKED: ATOM     24  C01 UNK     1      19.984  33.810  21.947 +0.01 -0.11    +0.164 C 
DOCKED: ATOM     25  C01 UNK     1      23.607  46.132  16.534 -0.25 -0.15    +0.164 C 
DOCKED: ATOM     26  C01 UNK     1      17.849  38.096  21.142 -0.22 -0.10    +0.163 C 
DOCKED: ATOM     27  C01 UNK     1      25.742  41.845  17.339 -0.12 -0.15    +0.163 C 
DOCKED: ATOM     28 BH00 UNK     1      19.570  39.520  20.302 +0.08 -0.16    +0.188 HD
DOCKED: ATOM     29 BH00 UNK     1      24.021  40.422  18.179 +0.08 -0.19    +0.188 HD
DOCKED: ENDROOT
DOCKED: BRANCH  20  30
DOCKED: ATOM     30  C00 UNK     1      24.409  38.968  20.332 -0.09 -0.07    +0.079 A 
DOCKED: ATOM     31  C00 UNK     1      24.888  39.914  21.241 -0.05 -0.03    +0.036 A 
DOCKED: ATOM     32  C01 UNK     1      26.234  40.190  21.310 -0.05 -0.03    +0.031 A 
DOCKED: ATOM     33  C00 UNK     1      27.124  39.554  20.475 -0.09 -0.03    +0.025 A 
DOCKED: ATOM     34  C01 UNK     1      26.683  38.613  19.598 -0.17 -0.04    +0.031 A 
DOCKED: ATOM     35  C01 UNK     1      25.344  38.281  19.516 -0.16 -0.04    +0.036 A 
DOCKED: BRANCH  33  36
DOCKED: ATOM     36  N2  UNK     1      28.806  39.968  20.544 -0.02 +0.44    -0.399 N 
DOCKED: ATOM     37  H2a UNK     1      29.381  39.391  20.815 +0.01 -0.21    +0.156 HD
DOCKED: ATOM     38  H2b UNK     1      29.065  40.753  20.306 +0.02 -0.14    +0.156 HD
DOCKED: ENDBRANCH  33  36
DOCKED: ENDBRANCH  20  30
DOCKED: BRANCH  21  39
DOCKED: ATOM     39  C00 UNK     1      19.182  40.974  18.148 -0.35 -0.11    +0.079 A 
DOCKED: ATOM     40  C00 UNK     1      18.277  41.750  18.877 -0.48 -0.05    +0.036 A 
DOCKED: ATOM     41  C01 UNK     1      16.926  41.519  18.775 -0.04 -0.04    +0.031 A 
DOCKED: ATOM     42  C00 UNK     1      16.443  40.535  17.943 -0.35 -0.03    +0.025 A 
DOCKED: ATOM     43  C01 UNK     1      17.306  39.753  17.241 -0.47 -0.03    +0.031 A 
DOCKED: ATOM     44  C01 UNK     1      18.672  39.928  17.336 -0.38 -0.05    +0.036 A 
DOCKED: BRANCH  42  45
DOCKED: ATOM     45  N2  UNK     1      14.731  40.309  17.790 -0.27 +0.37    -0.399 N 
DOCKED: ATOM     46  H2a UNK     1      14.418  39.554  17.526 +0.12 -0.11    +0.156 HD
DOCKED: ATOM     47  H2b UNK     1      14.195  40.953  17.980 +0.02 -0.17    +0.156 HD
DOCKED: ENDBRANCH  42  45
DOCKED: ENDBRANCH  21  39
DOCKED: TORSDOF 4
DOCKED: TER
DOCKED: ENDMDL
________________________________________________________________________________


	BEGINNING GENETIC ALGORITHM DOCKING 24 of 25
Run: 24 Seed: 1701997575 1205415434 [ Run 24 of 25 GA/GALS ]
Beginning LAMARCKIAN GENETIC ALGORITHM (LGA), with a maximum of 2500000 energy evaluations.

Final-Value: -10.314


	FINAL GENETIC ALGORITHM DOCKED STATE
	_______________________________________________


Detailed state:  trans 23.199 42.363 19.657 quatxyzw 0.494602 -0.123143 0.504921 0.696606 center 2.061 11.319 -0.000 ntor 4 127.2146 -1.3724 32.0984 -31.5865
State:	 23.199  42.363  19.657   0.689 -0.172  0.704 91.689    127.21   -1.37   32.10  -31.59

DOCKED: MODEL       24
DOCKED: USER    Run = 24
DOCKED: USER    DPF = final_struct_1LML_clean_h_TZ.dpf
DOCKED: USER  
DOCKED: USER    Estimated Free Energy of Binding    =   -7.89 kcal/mol  [=(1)+(2)+(3)-(4)]
DOCKED: USER    Estimated Inhibition Constant, Ki   =    1.66 uM (micromolar)  [Temperature = 298.15 K]
DOCKED: USER    
DOCKED: USER    (1) Final Intermolecular Energy     =   -9.08 kcal/mol
DOCKED: USER        vdW + Hbond + desolv Energy     =   -9.19 kcal/mol
DOCKED: USER        Electrostatic Energy            =   +0.11 kcal/mol
DOCKED: USER    (2) Final Total Internal Energy     =   -1.23 kcal/mol
DOCKED: USER    (3) Torsional Free Energy           =   +1.19 kcal/mol
DOCKED: USER    (4) Unbound System's Energy  [=(2)] =   -1.23 kcal/mol
DOCKED: USER    
DOCKED: USER    
DOCKED: USER    NEWDPF move final_struct.pdbqt
DOCKED: USER    NEWDPF about 2.061000 11.319000 -0.000000
DOCKED: USER    NEWDPF tran0 23.198609 42.362934 19.656532
DOCKED: USER    NEWDPF quaternion0 0.494602 -0.123143 0.504921 0.696606
DOCKED: USER    NEWDPF axisangle0 0.689385 -0.171639 0.703768 91.689341
DOCKED: USER    NEWDPF quat0 0.689385 -0.171639 0.703768 91.689341
DOCKED: USER    NEWDPF dihe0 127.21 -1.37 32.10 -31.59 
DOCKED: USER  keepresnum = 1 
DOCKED: USER  
DOCKED: REMARK  4 active torsions:
DOCKED: REMARK  status: ('A' for Active; 'I' for Inactive)
DOCKED: REMARK    1  A    between atoms: C00Q_4  and  N008_28 
DOCKED: REMARK    2  A    between atoms: C00Q_5  and  N008_29 
DOCKED: REMARK    3  A    between atoms: C00R_6  and  N2_24 
DOCKED: REMARK    4  A    between atoms: C00R_7  and  N2_25 
DOCKED: USER                              x       y       z     vdW  Elec       q    Type
DOCKED: USER                           _______ _______ _______ _____ _____    ______ ____
DOCKED: ROOT
DOCKED: ATOM      1 Pd02 UNK     1      23.199  42.363  19.657 -0.03 -0.00    +0.000 Pd
DOCKED: ATOM      2  C00 UNK     1      25.936  43.484  19.454 -0.08 -0.11    +0.162 C 
DOCKED: ATOM      3  C00 UNK     1      20.462  41.242  19.858 -0.19 -0.17    +0.162 C 
DOCKED: ATOM      4  C00 UNK     1      27.337  43.702  21.494 -0.07 -0.16    +0.285 C 
DOCKED: ATOM      5  C00 UNK     1      19.061  41.024  17.819 -0.28 -0.42    +0.285 C 
DOCKED: ATOM      6  C00 UNK     1      26.190  43.154  20.847 -0.04 -0.11    +0.192 C 
DOCKED: ATOM      7  C00 UNK     1      20.207  41.572  18.466 -0.30 -0.27    +0.192 C 
DOCKED: ATOM      8  N00 UNK     1      24.882  43.101  18.850 -0.06 +0.23    -0.281 N 
DOCKED: ATOM      9  N00 UNK     1      21.516  41.624  20.463 -0.09 +0.25    -0.281 N 
DOCKED: ATOM     10  N00 UNK     1      25.497  42.326  21.567 -0.09 +0.09    -0.140 NA
DOCKED: ATOM     11  N00 UNK     1      20.900  42.400  17.746 -4.20 +0.24    -0.140 NA
DOCKED: ATOM     12  N00 UNK     1      26.929  44.174  18.782 -0.03 +0.19    -0.286 N 
DOCKED: ATOM     13  N00 UNK     1      19.468  40.552  20.531 -0.09 +0.29    -0.286 N 
DOCKED: ATOM     14  N00 UNK     1      28.147  44.544  20.756 -0.07 +0.15    -0.268 N 
DOCKED: ATOM     15  N00 UNK     1      18.250  40.182  18.557 -0.21 +0.29    -0.268 N 
DOCKED: ATOM     16  O00 UNK     1      28.803  45.458  18.794 -0.03 +0.15    -0.246 OA
DOCKED: ATOM     17  O00 UNK     1      17.595  39.267  20.519 -0.29 +0.19    -0.246 OA
DOCKED: ATOM     18  O00 UNK     1      27.641  43.497  22.686 -0.09 +0.14    -0.265 OA
DOCKED: ATOM     19  O00 UNK     1      18.756  41.229  16.627 +0.29 +0.53    -0.265 OA
DOCKED: ATOM     20  N00 UNK     1      24.360  41.793  21.215 -0.09 +0.11    -0.150 N 
DOCKED: ATOM     21  N00 UNK     1      22.038  42.933  18.097 -0.27 +0.20    -0.150 N 
DOCKED: ATOM     22  C01 UNK     1      28.019  44.753  19.392 -0.04 -0.20    +0.332 C 
DOCKED: ATOM     23  C01 UNK     1      18.378  39.973  19.921 -0.07 -0.32    +0.332 C 
DOCKED: ATOM     24  C01 UNK     1      29.330  45.159  21.431 -0.09 -0.08    +0.164 C 
DOCKED: ATOM     25  C01 UNK     1      17.067  39.567  17.882 -0.44 -0.15    +0.164 C 
DOCKED: ATOM     26  C01 UNK     1      26.836  44.385  17.337 -0.05 -0.12    +0.163 C 
DOCKED: ATOM     27  C01 UNK     1      19.561  40.340  21.976 -0.09 -0.15    +0.163 C 
DOCKED: ATOM     28 BH00 UNK     1      24.893  43.167  17.993 +0.07 -0.17    +0.188 HD
DOCKED: ATOM     29 BH00 UNK     1      21.504  41.559  21.320 +0.08 -0.15    +0.188 HD
DOCKED: ENDROOT
DOCKED: BRANCH  20  30
DOCKED: ATOM     30  C00 UNK     1      23.890  40.837  22.152 -0.05 -0.06    +0.079 A 
DOCKED: ATOM     31  C00 UNK     1      24.084  39.474  21.917 -0.04 -0.03    +0.036 A 
DOCKED: ATOM     32  C01 UNK     1      23.606  38.543  22.808 -0.04 -0.03    +0.031 A 
DOCKED: ATOM     33  C00 UNK     1      22.916  38.936  23.932 -0.02 -0.02    +0.025 A 
DOCKED: ATOM     34  C01 UNK     1      22.735  40.258  24.192 -0.06 -0.02    +0.031 A 
DOCKED: ATOM     35  C01 UNK     1      23.224  41.230  23.341 -0.11 -0.02    +0.036 A 
DOCKED: BRANCH  33  36
DOCKED: ATOM     36  N2  UNK     1      22.274  37.735  25.005 +0.01 +0.26    -0.399 N 
DOCKED: ATOM     37  H2a UNK     1      22.454  37.766  25.844 +0.01 -0.10    +0.156 HD
DOCKED: ATOM     38  H2b UNK     1      21.773  37.108  24.697 +0.02 -0.10    +0.156 HD
DOCKED: ENDBRANCH  33  36
DOCKED: ENDBRANCH  20  30
DOCKED: BRANCH  21  39
DOCKED: ATOM     39  C00 UNK     1      22.507  43.889  17.161 -0.35 -0.11    +0.079 A 
DOCKED: ATOM     40  C00 UNK     1      22.324  45.252  17.400 -0.38 -0.04    +0.036 A 
DOCKED: ATOM     41  C01 UNK     1      22.802  46.183  16.509 -0.34 -0.03    +0.031 A 
DOCKED: ATOM     42  C00 UNK     1      23.483  45.789  15.380 -0.28 -0.03    +0.025 A 
DOCKED: ATOM     43  C01 UNK     1      23.655  44.466  15.115 -0.35 -0.04    +0.031 A 
DOCKED: ATOM     44  C01 UNK     1      23.164  43.495  15.966 -0.33 -0.06    +0.036 A 
DOCKED: BRANCH  42  45
DOCKED: ATOM     45  N2  UNK     1      24.125  46.989  14.307 -0.11 +0.31    -0.399 N 
DOCKED: ATOM     46  H2a UNK     1      24.003  47.823  14.471 +0.11 -0.11    +0.156 HD
DOCKED: ATOM     47  H2b UNK     1      24.567  46.749  13.610 +0.09 -0.12    +0.156 HD
DOCKED: ENDBRANCH  42  45
DOCKED: ENDBRANCH  21  39
DOCKED: TORSDOF 4
DOCKED: TER
DOCKED: ENDMDL
________________________________________________________________________________


	BEGINNING GENETIC ALGORITHM DOCKING 25 of 25
Run: 25 Seed: 933387609 500744445 [ Run 25 of 25 GA/GALS ]
Beginning LAMARCKIAN GENETIC ALGORITHM (LGA), with a maximum of 2500000 energy evaluations.

Final-Value: -10.139


	FINAL GENETIC ALGORITHM DOCKED STATE
	_______________________________________________


Detailed state:  trans 23.273 42.498 19.560 quatxyzw -0.525839 0.120268 -0.493854 -0.682009 center 2.061 11.319 -0.000 ntor 4 -89.0535 164.5027 28.9352 -31.6786
State:	 23.273  42.498  19.560  -0.719  0.164 -0.675 -93.998    -89.05  164.50   28.94  -31.68

DOCKED: MODEL       25
DOCKED: USER    Run = 25
DOCKED: USER    DPF = final_struct_1LML_clean_h_TZ.dpf
DOCKED: USER  
DOCKED: USER    Estimated Free Energy of Binding    =   -7.71 kcal/mol  [=(1)+(2)+(3)-(4)]
DOCKED: USER    Estimated Inhibition Constant, Ki   =    2.23 uM (micromolar)  [Temperature = 298.15 K]
DOCKED: USER    
DOCKED: USER    (1) Final Intermolecular Energy     =   -8.90 kcal/mol
DOCKED: USER        vdW + Hbond + desolv Energy     =   -8.99 kcal/mol
DOCKED: USER        Electrostatic Energy            =   +0.09 kcal/mol
DOCKED: USER    (2) Final Total Internal Energy     =   -1.24 kcal/mol
DOCKED: USER    (3) Torsional Free Energy           =   +1.19 kcal/mol
DOCKED: USER    (4) Unbound System's Energy  [=(2)] =   -1.24 kcal/mol
DOCKED: USER    
DOCKED: USER    
DOCKED: USER    NEWDPF move final_struct.pdbqt
DOCKED: USER    NEWDPF about 2.061000 11.319000 -0.000000
DOCKED: USER    NEWDPF tran0 23.272925 42.497592 19.559548
DOCKED: USER    NEWDPF quaternion0 -0.525839 0.120268 -0.493854 -0.682009
DOCKED: USER    NEWDPF axisangle0 -0.719004 0.164448 -0.675270 -93.998275
DOCKED: USER    NEWDPF quat0 -0.719004 0.164448 -0.675270 -93.998275
DOCKED: USER    NEWDPF dihe0 -89.05 164.50 28.94 -31.68 
DOCKED: USER  keepresnum = 1 
DOCKED: USER  
DOCKED: REMARK  4 active torsions:
DOCKED: REMARK  status: ('A' for Active; 'I' for Inactive)
DOCKED: REMARK    1  A    between atoms: C00Q_4  and  N008_28 
DOCKED: REMARK    2  A    between atoms: C00Q_5  and  N008_29 
DOCKED: REMARK    3  A    between atoms: C00R_6  and  N2_24 
DOCKED: REMARK    4  A    between atoms: C00R_7  and  N2_25 
DOCKED: USER                              x       y       z     vdW  Elec       q    Type
DOCKED: USER                           _______ _______ _______ _____ _____    ______ ____
DOCKED: ROOT
DOCKED: ATOM      1 Pd02 UNK     1      23.273  42.498  19.560 -0.03 -0.00    +0.000 Pd
DOCKED: ATOM      2  C00 UNK     1      25.986  43.632  19.177 -0.09 -0.11    +0.162 C 
DOCKED: ATOM      3  C00 UNK     1      20.561  41.363  19.942 -0.20 -0.17    +0.162 C 
DOCKED: ATOM      4  C00 UNK     1      27.467  43.983  21.140 -0.07 -0.16    +0.285 C 
DOCKED: ATOM      5  C00 UNK     1      19.079  41.012  17.979 -0.28 -0.41    +0.285 C 
DOCKED: ATOM      6  C00 UNK     1      26.301  43.387  20.575 -0.00 -0.11    +0.192 C 
DOCKED: ATOM      7  C00 UNK     1      20.245  41.609  18.544 -0.30 -0.26    +0.192 C 
DOCKED: ATOM      8  N00 UNK     1      24.912  43.204  18.641 -0.06 +0.24    -0.281 N 
DOCKED: ATOM      9  N00 UNK     1      21.635  41.791  20.477 -0.10 +0.25    -0.281 N 
DOCKED: ATOM     10  N00 UNK     1      25.649  42.595  21.370 -0.09 +0.09    -0.140 NA
DOCKED: ATOM     11  N00 UNK     1      20.896  42.400  17.749 -4.20 +0.24    -0.140 NA
DOCKED: ATOM     12  N00 UNK     1      26.941  44.292  18.424 -0.03 +0.20    -0.286 N 
DOCKED: ATOM     13  N00 UNK     1      19.605  40.704  20.695 -0.08 +0.29    -0.286 N 
DOCKED: ATOM     14  N00 UNK     1      28.235  44.788  20.320 -0.07 +0.15    -0.268 N 
DOCKED: ATOM     15  N00 UNK     1      18.310  40.207  18.799 -0.20 +0.28    -0.268 N 
DOCKED: ATOM     16  O00 UNK     1      28.797  45.593  18.282 -0.02 +0.15    -0.246 OA
DOCKED: ATOM     17  O00 UNK     1      17.749  39.402  20.837 -0.25 +0.20    -0.246 OA
DOCKED: ATOM     18  O00 UNK     1      27.824  43.851  22.327 -0.10 +0.14    -0.265 OA
DOCKED: ATOM     19  O00 UNK     1      18.723  41.144  16.791 +0.02 +0.49    -0.265 OA
DOCKED: ATOM     20  N00 UNK     1      24.505  42.031  21.098 -0.10 +0.11    -0.150 N 
DOCKED: ATOM     21  N00 UNK     1      22.041  42.965  18.020 -0.28 +0.21    -0.150 N 
DOCKED: ATOM     22  C01 UNK     1      28.048  44.916  18.953 -0.03 -0.21    +0.332 C 
DOCKED: ATOM     23  C01 UNK     1      18.498  40.079  20.166 +0.10 -0.33    +0.332 C 
DOCKED: ATOM     24  C01 UNK     1      29.438  45.453  20.908 -0.08 -0.09    +0.164 C 
DOCKED: ATOM     25  C01 UNK     1      17.108  39.542  18.211 -0.43 -0.15    +0.164 C 
DOCKED: ATOM     26  C01 UNK     1      26.785  44.418  16.975 -0.06 -0.12    +0.163 C 
DOCKED: ATOM     27  C01 UNK     1      19.761  40.578  22.144 -0.16 -0.14    +0.163 C 
DOCKED: ATOM     28 BH00 UNK     1      24.886  43.220  17.782 +0.07 -0.17    +0.188 HD
DOCKED: ATOM     29 BH00 UNK     1      21.660  41.775  21.337 +0.08 -0.15    +0.188 HD
DOCKED: ENDROOT
DOCKED: BRANCH  20  30
DOCKED: ATOM     30  C00 UNK     1      24.087  41.127  22.107 -0.07 -0.06    +0.079 A 
DOCKED: ATOM     31  C00 UNK     1      24.228  39.751  21.916 -0.04 -0.03    +0.036 A 
DOCKED: ATOM     32  C01 UNK     1      23.798  38.869  22.879 -0.04 -0.03    +0.031 A 
DOCKED: ATOM     33  C00 UNK     1      23.209  39.326  24.036 -0.02 -0.02    +0.025 A 
DOCKED: ATOM     34  C01 UNK     1      23.081  40.663  24.253 -0.07 -0.02    +0.031 A 
DOCKED: ATOM     35  C01 UNK     1      23.527  41.586  23.327 -0.14 -0.02    +0.036 A 
DOCKED: BRANCH  33  36
DOCKED: ATOM     36  N2  UNK     1      22.623  38.188  25.205 +0.01 +0.26    -0.399 N 
DOCKED: ATOM     37  H2a UNK     1      21.818  37.891  25.151 +0.02 -0.10    +0.156 HD
DOCKED: ATOM     38  H2b UNK     1      23.138  37.919  25.838 +0.01 -0.10    +0.156 HD
DOCKED: ENDBRANCH  33  36
DOCKED: ENDBRANCH  20  30
DOCKED: BRANCH  21  39
DOCKED: ATOM     39  C00 UNK     1      22.459  43.868  17.012 -0.36 -0.11    +0.079 A 
DOCKED: ATOM     40  C00 UNK     1      22.267  45.241  17.178 -0.35 -0.04    +0.036 A 
DOCKED: ATOM     41  C01 UNK     1      22.696  46.124  16.215 -0.22 -0.03    +0.031 A 
DOCKED: ATOM     42  C00 UNK     1      23.336  45.671  15.084 -0.14 -0.03    +0.025 A 
DOCKED: ATOM     43  C01 UNK     1      23.515  44.337  14.890 -0.34 -0.05    +0.031 A 
DOCKED: ATOM     44  C01 UNK     1      23.072  43.413  15.816 -0.27 -0.07    +0.036 A 
DOCKED: BRANCH  42  45
DOCKED: ATOM     45  N2  UNK     1      23.918  46.813  13.917 -0.13 +0.32    -0.399 N 
DOCKED: ATOM     46  H2a UNK     1      24.483  46.568  13.319 +0.07 -0.12    +0.156 HD
DOCKED: ATOM     47  H2b UNK     1      23.641  47.627  13.938 +0.10 -0.11    +0.156 HD
DOCKED: ENDBRANCH  42  45
DOCKED: ENDBRANCH  21  39
DOCKED: TORSDOF 4
DOCKED: TER
DOCKED: ENDMDL
________________________________________________________________________________

DPF> analysis                             # perform a ranked cluster analysis


		CLUSTER ANALYSIS OF CONFORMATIONS
		_________________________________

Number of conformations = 25

RMSD cluster analysis will be performed using the ligand atoms only (47 / 47 total atoms).

Outputting structurally similar clusters, ranked in order of increasing energy.


________________________________________________________________________________

Number of distinct conformational clusters found = 3,  out of 25 runs,
Using an rmsd-tolerance of 2.0 A


	CLUSTERING HISTOGRAM
	____________________

________________________________________________________________________________
     |           |     |           |     |                                    
Clus | Lowest    | Run | Mean      | Num | Histogram                          
-ter | Binding   |     | Binding   | in  |                                    
Rank | Energy    |     | Energy    | Clus|    5    10   15   20   25   30   35
_____|___________|_____|___________|_____|____:____|____:____|____:____|____:___
   1 |     -8.89 |   8 |     -8.53 |  21 |#####################
   2 |     -7.89 |  24 |     -7.77 |   3 |###
   3 |     -6.89 |   4 |     -6.89 |   1 |#
_____|___________|_____|___________|_____|______________________________________


Number of multi-member conformational clusters found = 2, out of 25 runs.

	RMSD TABLE
	__________

_____________________________________________________________________
     |      |      |           |         |                 |
Rank | Sub- | Run  | Binding   | Cluster | Reference       | Grep
     | Rank |      | Energy    | RMSD    | RMSD            | Pattern
_____|______|______|___________|_________|_________________|___________
   1      1      8       -8.89      0.00     36.94           RANKING
   1      2     17       -8.84      0.20     36.91           RANKING
   1      3      7       -8.83      0.34     37.01           RANKING
   1      4     20       -8.83      0.13     36.96           RANKING
   1      5      1       -8.83      0.36     37.02           RANKING
   1      6     10       -8.82      0.27     36.93           RANKING
   1      7     11       -8.79      0.44     37.04           RANKING
   1      8      5       -8.78      0.29     36.91           RANKING
   1      9      2       -8.78      0.28     36.98           RANKING
   1     10     16       -8.72      0.30     36.90           RANKING
   1     11      3       -8.72      0.49     37.04           RANKING
   1     12     19       -8.60      0.41     36.94           RANKING
   1     13     12       -8.58      0.34     36.96           RANKING
   1     14     13       -8.57      0.52     37.07           RANKING
   1     15     23       -8.42      0.37     37.10           RANKING
   1     16      6       -8.29      0.55     37.12           RANKING
   1     17     18       -8.26      0.50     37.07           RANKING
   1     18     14       -8.17      0.29     37.00           RANKING
   1     19     15       -7.81      1.31     36.86           RANKING
   1     20     22       -7.81      1.30     36.89           RANKING
   1     21     21       -7.71      1.27     36.80           RANKING
   2      1     24       -7.89      0.00     39.78           RANKING
   2      2     25       -7.71      0.40     39.88           RANKING
   2      3      9       -7.70      0.29     39.85           RANKING
   3      1      4       -6.89      0.00     32.55           RANKING
_______________________________________________________________________



	INFORMATION ENTROPY ANALYSIS FOR THIS CLUSTERING
	________________________________________________


Information entropy for this clustering = 0.16  (rmstol = 2.00 Angstrom)

_______________________________________________________________________


	STATISTICAL MECHANICAL ANALYSIS
	_______________________________


Partition function, Q =    25.36            at Temperature, T = 298.15 K
Free energy,        A ~ -1915.49 kcal/mol   at Temperature, T = 298.15 K
Internal energy,    U =    -8.37 kcal/mol   at Temperature, T = 298.15 K
Entropy,            S =     6.40 kcal/mol/K at Temperature, T = 298.15 K

_______________________________________________________________________


	LOWEST ENERGY DOCKED CONFORMATION from EACH CLUSTER
	___________________________________________________



Keeping original residue number (specified in the input PDBQ file) for outputting.

MODEL        8
USER    Run = 8
USER    Cluster Rank = 1
USER    Number of conformations in this cluster = 21
USER  
USER    RMSD from reference structure       = 36.939 A
USER  
USER    Estimated Free Energy of Binding    =   -8.89 kcal/mol  [=(1)+(2)+(3)-(4)]
USER    Estimated Inhibition Constant, Ki   =  304.17 nM (nanomolar)  [Temperature = 298.15 K]
USER    
USER    (1) Final Intermolecular Energy     =  -10.08 kcal/mol
USER        vdW + Hbond + desolv Energy     =  -10.16 kcal/mol
USER        Electrostatic Energy            =   +0.07 kcal/mol
USER    (2) Final Total Internal Energy     =   -1.20 kcal/mol
USER    (3) Torsional Free Energy           =   +1.19 kcal/mol
USER    (4) Unbound System's Energy  [=(2)] =   -1.20 kcal/mol
USER    
USER    
USER  
USER    DPF = final_struct_1LML_clean_h_TZ.dpf
USER    NEWDPF move	final_struct.pdbqt
USER    NEWDPF about	2.061000 11.319000 -0.000000
USER    NEWDPF tran0	21.695844 39.902333 19.187444
USER    NEWDPF axisangle0	-0.791363 0.483312 -0.374371 93.813803
USER    NEWDPF quaternion0	-0.577889 0.352936 -0.273382 0.683186
USER    NEWDPF dihe0	-110.03 -159.66 -141.42 -15.16 
USER  
USER                              x       y       z    vdW   Elec        q     RMS 
ATOM      1 Pd02 UNK     1      21.696  39.902  19.187 -0.02 -0.00    +0.000    36.939
ATOM      2  C00 UNK     1      20.088  37.883  20.646 -0.09 -0.12    +0.162    36.939
ATOM      3  C00 UNK     1      23.303  41.922  17.729 -0.17 -0.21    +0.162    36.939
ATOM      4  C00 UNK     1      21.090  35.682  21.216 -0.17 -0.21    +0.285    36.939
ATOM      5  C00 UNK     1      22.302  44.123  17.159 -0.28 -0.40    +0.285    36.939
ATOM      6  C00 UNK     1      21.259  37.032  20.787 -0.14 -0.14    +0.192    36.939
ATOM      7  C00 UNK     1      22.133  42.773  17.587 -0.30 -0.30    +0.192    36.939
ATOM      8  N00 UNK     1      20.165  39.066  20.180 -0.03 +0.24    -0.281    36.939
ATOM      9  N00 UNK     1      23.226  40.739  18.196 -0.06 +0.32    -0.281    36.939
ATOM     10  N00 UNK     1      22.491  37.407  20.628 -0.13 +0.11    -0.140    36.939
ATOM     11  N00 UNK     1      20.901  42.397  17.746 -4.17 +0.24    -0.140    36.939
ATOM     12  N00 UNK     1      18.887  37.379  21.113 -0.05 +0.19    -0.286    36.939
ATOM     13  N00 UNK     1      24.505  42.425  17.262 -0.06 +0.31    -0.286    36.939
ATOM     14  N00 UNK     1      19.802  35.245  21.461 -0.11 +0.19    -0.268    36.939
ATOM     15  N00 UNK     1      23.590  44.560  16.914 -0.14 +0.30    -0.268    36.939
ATOM     16  O00 UNK     1      17.594  35.630  21.767 -0.09 +0.14    -0.246    36.939
ATOM     17  O00 UNK     1      25.797  44.175  16.608 -0.06 +0.21    -0.246    36.939
ATOM     18  O00 UNK     1      22.020  34.864  21.357 -0.24 +0.22    -0.265    36.939
ATOM     19  O00 UNK     1      21.371  44.941  17.018 -0.02 +0.41    -0.265    36.939
ATOM     20  N00 UNK     1      22.870  38.557  20.143 -0.08 +0.13    -0.150    36.939
ATOM     21  N00 UNK     1      20.520  41.248  18.232 -0.23 +0.22    -0.150    36.939
ATOM     22  C01 UNK     1      18.688  36.069  21.485 -0.06 -0.21    +0.332    36.939
ATOM     23  C01 UNK     1      24.703  43.735  16.890 -0.07 -0.34    +0.332    36.939
ATOM     24  C01 UNK     1      19.605  33.821  21.872 -0.08 -0.11    +0.164    36.939
ATOM     25  C01 UNK     1      23.787  45.984  16.503 -0.23 -0.15    +0.164    36.939
ATOM     26  C01 UNK     1      17.701  38.234  21.177 -0.23 -0.09    +0.163    36.939
ATOM     27  C01 UNK     1      25.691  41.571  17.198 -0.14 -0.15    +0.163    36.939
ATOM     28 BH00 UNK     1      19.478  39.566  20.305 +0.08 -0.17    +0.188    36.939
ATOM     29 BH00 UNK     1      23.914  40.239  18.069 +0.08 -0.20    +0.188    36.939
ATOM     30  C00 UNK     1      24.276  38.735  20.194 -0.10 -0.07    +0.079    36.939
ATOM     31  C00 UNK     1      25.078  38.273  19.148 -0.16 -0.03    +0.036    36.939
ATOM     32  C01 UNK     1      26.444  38.419  19.205 -0.20 -0.03    +0.031    36.939
ATOM     33  C00 UNK     1      27.042  39.005  20.297 -0.12 -0.03    +0.025    36.939
ATOM     34  C01 UNK     1      26.279  39.482  21.317 -0.08 -0.03    +0.031    36.939
ATOM     35  C01 UNK     1      24.902  39.385  21.288 -0.06 -0.03    +0.036    36.939
ATOM     36  N2  UNK     1      28.771  39.119  20.367 -0.04 +0.56    -0.399    36.939
ATOM     37  H2a UNK     1      29.211  38.640  20.928 -0.09 -0.29    +0.156    36.939
ATOM     38  H2b UNK     1      29.187  39.654  19.839 +0.03 -0.17    +0.156    36.939
ATOM     39  C00 UNK     1      19.116  41.069  18.181 -0.36 -0.11    +0.079    36.939
ATOM     40  C00 UNK     1      18.567  40.052  17.396 -0.39 -0.05    +0.036    36.939
ATOM     41  C01 UNK     1      17.206  39.858  17.366 -0.47 -0.03    +0.031    36.939
ATOM     42  C00 UNK     1      16.367  40.647  18.119 -0.33 -0.03    +0.025    36.939
ATOM     43  C01 UNK     1      16.877  41.657  18.874 +0.01 -0.04    +0.031    36.939
ATOM     44  C01 UNK     1      18.235  41.909  18.910 -0.45 -0.05    +0.036    36.939
ATOM     45  N2  UNK     1      14.662  40.337  18.105 -0.18 +0.38    -0.399    36.939
ATOM     46  H2a UNK     1      14.111  40.951  18.344 -0.01 -0.18    +0.156    36.939
ATOM     47  H2b UNK     1      14.368  39.567  17.859 +0.13 -0.11    +0.156    36.939
TER
ENDMDL
MODEL       24
USER    Run = 24
USER    Cluster Rank = 2
USER    Number of conformations in this cluster = 3
USER  
USER    RMSD from reference structure       = 39.781 A
USER  
USER    Estimated Free Energy of Binding    =   -7.89 kcal/mol  [=(1)+(2)+(3)-(4)]
USER    Estimated Inhibition Constant, Ki   =    1.66 uM (micromolar)  [Temperature = 298.15 K]
USER    
USER    (1) Final Intermolecular Energy     =   -9.08 kcal/mol
USER        vdW + Hbond + desolv Energy     =   -9.19 kcal/mol
USER        Electrostatic Energy            =   +0.11 kcal/mol
USER    (2) Final Total Internal Energy     =   -1.23 kcal/mol
USER    (3) Torsional Free Energy           =   +1.19 kcal/mol
USER    (4) Unbound System's Energy  [=(2)] =   -1.23 kcal/mol
USER    
USER    
USER  
USER    DPF = final_struct_1LML_clean_h_TZ.dpf
USER    NEWDPF move	final_struct.pdbqt
USER    NEWDPF about	2.061000 11.319000 -0.000000
USER    NEWDPF tran0	23.198609 42.362934 19.656532
USER    NEWDPF axisangle0	0.689385 -0.171639 0.703768 91.689341
USER    NEWDPF quaternion0	0.494602 -0.123143 0.504921 0.696606
USER    NEWDPF dihe0	127.21 -1.37 32.10 -31.59 
USER  
USER                              x       y       z    vdW   Elec        q     RMS 
ATOM      1 Pd02 UNK     1      23.199  42.363  19.657 -0.03 -0.00    +0.000    39.781
ATOM      2  C00 UNK     1      25.936  43.484  19.454 -0.08 -0.11    +0.162    39.781
ATOM      3  C00 UNK     1      20.462  41.242  19.858 -0.19 -0.17    +0.162    39.781
ATOM      4  C00 UNK     1      27.337  43.702  21.494 -0.07 -0.16    +0.285    39.781
ATOM      5  C00 UNK     1      19.061  41.024  17.819 -0.28 -0.42    +0.285    39.781
ATOM      6  C00 UNK     1      26.190  43.154  20.847 -0.04 -0.11    +0.192    39.781
ATOM      7  C00 UNK     1      20.207  41.572  18.466 -0.30 -0.27    +0.192    39.781
ATOM      8  N00 UNK     1      24.882  43.101  18.850 -0.06 +0.23    -0.281    39.781
ATOM      9  N00 UNK     1      21.516  41.624  20.463 -0.09 +0.25    -0.281    39.781
ATOM     10  N00 UNK     1      25.497  42.326  21.567 -0.09 +0.09    -0.140    39.781
ATOM     11  N00 UNK     1      20.900  42.400  17.746 -4.20 +0.24    -0.140    39.781
ATOM     12  N00 UNK     1      26.929  44.174  18.782 -0.03 +0.19    -0.286    39.781
ATOM     13  N00 UNK     1      19.468  40.552  20.531 -0.09 +0.29    -0.286    39.781
ATOM     14  N00 UNK     1      28.147  44.544  20.756 -0.07 +0.15    -0.268    39.781
ATOM     15  N00 UNK     1      18.250  40.182  18.557 -0.21 +0.29    -0.268    39.781
ATOM     16  O00 UNK     1      28.803  45.458  18.794 -0.03 +0.15    -0.246    39.781
ATOM     17  O00 UNK     1      17.595  39.267  20.519 -0.29 +0.19    -0.246    39.781
ATOM     18  O00 UNK     1      27.641  43.497  22.686 -0.09 +0.14    -0.265    39.781
ATOM     19  O00 UNK     1      18.756  41.229  16.627 +0.29 +0.53    -0.265    39.781
ATOM     20  N00 UNK     1      24.360  41.793  21.215 -0.09 +0.11    -0.150    39.781
ATOM     21  N00 UNK     1      22.038  42.933  18.097 -0.27 +0.20    -0.150    39.781
ATOM     22  C01 UNK     1      28.019  44.753  19.392 -0.04 -0.20    +0.332    39.781
ATOM     23  C01 UNK     1      18.378  39.973  19.921 -0.07 -0.32    +0.332    39.781
ATOM     24  C01 UNK     1      29.330  45.159  21.431 -0.09 -0.08    +0.164    39.781
ATOM     25  C01 UNK     1      17.067  39.567  17.882 -0.44 -0.15    +0.164    39.781
ATOM     26  C01 UNK     1      26.836  44.385  17.337 -0.05 -0.12    +0.163    39.781
ATOM     27  C01 UNK     1      19.561  40.340  21.976 -0.09 -0.15    +0.163    39.781
ATOM     28 BH00 UNK     1      24.893  43.167  17.993 +0.07 -0.17    +0.188    39.781
ATOM     29 BH00 UNK     1      21.504  41.559  21.320 +0.08 -0.15    +0.188    39.781
ATOM     30  C00 UNK     1      23.890  40.837  22.152 -0.05 -0.06    +0.079    39.781
ATOM     31  C00 UNK     1      24.084  39.474  21.917 -0.04 -0.03    +0.036    39.781
ATOM     32  C01 UNK     1      23.606  38.543  22.808 -0.04 -0.03    +0.031    39.781
ATOM     33  C00 UNK     1      22.916  38.936  23.932 -0.02 -0.02    +0.025    39.781
ATOM     34  C01 UNK     1      22.735  40.258  24.192 -0.06 -0.02    +0.031    39.781
ATOM     35  C01 UNK     1      23.224  41.230  23.341 -0.11 -0.02    +0.036    39.781
ATOM     36  N2  UNK     1      22.274  37.735  25.005 +0.01 +0.26    -0.399    39.781
ATOM     37  H2a UNK     1      22.454  37.766  25.844 +0.01 -0.10    +0.156    39.781
ATOM     38  H2b UNK     1      21.773  37.108  24.697 +0.02 -0.10    +0.156    39.781
ATOM     39  C00 UNK     1      22.507  43.889  17.161 -0.35 -0.11    +0.079    39.781
ATOM     40  C00 UNK     1      22.324  45.252  17.400 -0.38 -0.04    +0.036    39.781
ATOM     41  C01 UNK     1      22.802  46.183  16.509 -0.34 -0.03    +0.031    39.781
ATOM     42  C00 UNK     1      23.483  45.789  15.380 -0.28 -0.03    +0.025    39.781
ATOM     43  C01 UNK     1      23.655  44.466  15.115 -0.35 -0.04    +0.031    39.781
ATOM     44  C01 UNK     1      23.164  43.495  15.966 -0.33 -0.06    +0.036    39.781
ATOM     45  N2  UNK     1      24.125  46.989  14.307 -0.11 +0.31    -0.399    39.781
ATOM     46  H2a UNK     1      24.003  47.823  14.471 +0.11 -0.11    +0.156    39.781
ATOM     47  H2b UNK     1      24.567  46.749  13.610 +0.09 -0.12    +0.156    39.781
TER
ENDMDL
MODEL        4
USER    Run = 4
USER    Cluster Rank = 3
USER    Number of conformations in this cluster = 1
USER  
USER    RMSD from reference structure       = 32.550 A
USER  
USER    Estimated Free Energy of Binding    =   -6.89 kcal/mol  [=(1)+(2)+(3)-(4)]
USER    Estimated Inhibition Constant, Ki   =    8.96 uM (micromolar)  [Temperature = 298.15 K]
USER    
USER    (1) Final Intermolecular Energy     =   -8.08 kcal/mol
USER        vdW + Hbond + desolv Energy     =   -8.07 kcal/mol
USER        Electrostatic Energy            =   -0.01 kcal/mol
USER    (2) Final Total Internal Energy     =   -1.13 kcal/mol
USER    (3) Torsional Free Energy           =   +1.19 kcal/mol
USER    (4) Unbound System's Energy  [=(2)] =   -1.13 kcal/mol
USER    
USER    
USER  
USER    DPF = final_struct_1LML_clean_h_TZ.dpf
USER    NEWDPF move	final_struct.pdbqt
USER    NEWDPF about	2.061000 11.319000 -0.000000
USER    NEWDPF tran0	13.428909 35.595548 23.594263
USER    NEWDPF axisangle0	0.635850 0.306807 0.708212 156.279719
USER    NEWDPF quaternion0	0.622276 0.300257 0.693094 0.205523
USER    NEWDPF dihe0	-109.68 -120.27 -172.48 -10.25 
USER  
USER                              x       y       z    vdW   Elec        q     RMS 
ATOM      1 Pd02 UNK     1      13.429  35.596  23.594 -0.05 -0.00    +0.000    32.550
ATOM      2  C00 UNK     1      16.303  35.921  24.247 -0.08 -0.08    +0.162    32.550
ATOM      3  C00 UNK     1      10.555  35.269  22.942 -0.18 -0.11    +0.162    32.550
ATOM      4  C00 UNK     1      17.097  38.016  25.321 -0.10 -0.14    +0.285    32.550
ATOM      5  C00 UNK     1       9.761  33.175  21.868 -0.24 -0.16    +0.285    32.550
ATOM      6  C00 UNK     1      16.017  37.160  24.952 -0.10 -0.09    +0.192    32.550
ATOM      7  C00 UNK     1      10.841  34.031  22.236 -0.25 -0.12    +0.192    32.550
ATOM      8  N00 UNK     1      15.377  35.163  23.811 -0.04 +0.14    -0.281    32.550
ATOM      9  N00 UNK     1      11.481  36.028  23.378 -0.11 +0.21    -0.281    32.550
ATOM     10  N00 UNK     1      14.847  37.546  25.360 -0.10 +0.06    -0.140    32.550
ATOM     11  N00 UNK     1      12.011  33.645  21.829 -0.22 +0.09    -0.140    32.550
ATOM     12  N00 UNK     1      17.633  35.557  24.132 -0.01 +0.15    -0.286    32.550
ATOM     13  N00 UNK     1       9.225  35.634  23.056 -0.20 +0.16    -0.286    32.550
ATOM     14  N00 UNK     1      18.374  37.623  24.967 -0.04 +0.14    -0.268    32.550
ATOM     15  N00 UNK     1       8.484  33.568  22.222 -0.26 +0.14    -0.268    32.550
ATOM     16  O00 UNK     1      19.842  36.081  24.203 -0.02 +0.14    -0.246    32.550
ATOM     17  O00 UNK     1       7.016  35.110  22.985 -0.39 +0.13    -0.246    32.550
ATOM     18  O00 UNK     1      16.965  39.105  25.914 -0.16 +0.13    -0.265    32.550
ATOM     19  O00 UNK     1       9.893  32.086  21.275 -0.24 +0.15    -0.265    32.550
ATOM     20  N00 UNK     1      13.716  36.976  25.047 -0.14 +0.07    -0.150    32.550
ATOM     21  N00 UNK     1      13.143  34.214  22.140 -0.18 +0.10    -0.150    32.550
ATOM     22  C01 UNK     1      18.691  36.384  24.435 -0.01 -0.18    +0.332    32.550
ATOM     23  C01 UNK     1       8.167  34.808  22.753 -0.23 -0.17    +0.332    32.550
ATOM     24  C01 UNK     1      19.513  38.529  25.310 -0.08 -0.09    +0.164    32.550
ATOM     25  C01 UNK     1       7.345  32.662  21.879 -0.50 -0.08    +0.164    32.550
ATOM     26  C01 UNK     1      17.998  34.244  23.602 -0.03 -0.09    +0.163    32.550
ATOM     27  C01 UNK     1       8.860  36.947  23.587 -0.36 -0.10    +0.163    32.550
ATOM     28 BH00 UNK     1      15.615  34.370  23.581 +0.04 -0.10    +0.188    32.550
ATOM     29 BH00 UNK     1      11.242  36.821  23.607 +0.03 -0.13    +0.188    32.550
ATOM     30  C00 UNK     1      12.610  37.544  25.731 -0.19 -0.04    +0.079    32.550
ATOM     31  C00 UNK     1      12.354  38.914  25.630 -0.26 -0.02    +0.036    32.550
ATOM     32  C01 UNK     1      11.300  39.473  26.312 -0.37 -0.02    +0.031    32.550
ATOM     33  C00 UNK     1      10.494  38.700  27.116 -0.38 -0.01    +0.025    32.550
ATOM     34  C01 UNK     1      10.712  37.361  27.212 -0.32 -0.01    +0.031    32.550
ATOM     35  C01 UNK     1      11.739  36.750  26.519 -0.23 -0.02    +0.036    32.550
ATOM     36  N2  UNK     1       9.210  39.446  28.012 -0.03 +0.22    -0.399    32.550
ATOM     37  H2a UNK     1       9.264  39.513  28.866 +0.12 -0.06    +0.156    32.550
ATOM     38  H2b UNK     1       8.519  39.749  27.600 -0.38 -0.13    +0.156    32.550
ATOM     39  C00 UNK     1      14.248  33.647  21.458 -0.20 -0.05    +0.079    32.550
ATOM     40  C00 UNK     1      15.049  34.445  20.638 -0.22 -0.02    +0.036    32.550
ATOM     41  C01 UNK     1      16.138  33.906  19.996 -0.27 -0.02    +0.031    32.550
ATOM     42  C00 UNK     1      16.466  32.580  20.164 -0.22 -0.02    +0.025    32.550
ATOM     43  C01 UNK     1      15.688  31.778  20.939 -0.12 -0.02    +0.031    32.550
ATOM     44  C01 UNK     1      14.566  32.269  21.579 -0.12 -0.02    +0.036    32.550
ATOM     45  N2  UNK     1      17.880  31.945  19.388 -0.12 +0.29    -0.399    32.550
ATOM     46  H2a UNK     1      17.810  31.298  18.828 +0.04 -0.11    +0.156    32.550
ATOM     47  H2b UNK     1      18.653  32.278  19.566 -0.53 -0.14    +0.156    32.550
TER
ENDMDL


AVSFLD: # AVS field file
AVSFLD: #
AVSFLD: # Created by AutoDock
AVSFLD: #
AVSFLD: ndim=2           # number of dimensions in the field
AVSFLD: nspace=1         # number of physical coordinates
AVSFLD: veclen=7         # vector size
AVSFLD: dim1=47          # atoms
AVSFLD: dim2=3           # conformations
AVSFLD: data=Real       # data type (byte,integer,Real,double)
AVSFLD: field=uniform    # field coordinate layout
AVSFLD: label= x y z vdW Elec q RMS
AVSFLD: variable 1 file = final_struct_1LML_clean_h_TZ.dlg.pdb filetype = ascii offset = 5 stride = 12
AVSFLD: variable 2 file = final_struct_1LML_clean_h_TZ.dlg.pdb filetype = ascii offset = 6 stride = 12
AVSFLD: variable 3 file = final_struct_1LML_clean_h_TZ.dlg.pdb filetype = ascii offset = 7 stride = 12
AVSFLD: variable 4 file = final_struct_1LML_clean_h_TZ.dlg.pdb filetype = ascii offset = 8 stride = 12
AVSFLD: variable 5 file = final_struct_1LML_clean_h_TZ.dlg.pdb filetype = ascii offset = 9 stride = 12
AVSFLD: variable 6 file = final_struct_1LML_clean_h_TZ.dlg.pdb filetype = ascii offset = 10 stride = 12
AVSFLD: variable 7 file = final_struct_1LML_clean_h_TZ.dlg.pdb filetype = ascii offset = 11 stride = 12
AVSFLD: # end of file

>>> Closing the docking parameter file (DPF)...
This docking finished at:			9:55 58" a.m., 04/02/2026


________________________________________________________________________________

/usr/local/lib/python3.9/site-packages/AMDock/data/autodock4: Successful Completion on "Weiman-HP-Z8-G4"

Real= 16m 43.52s,  CPU= 16m 43.22s,  System= 0.19s
________________________________________________________________________________

